M 0.00000 0 (20.00, 100.00, 0.00), (20.00, 100.00), 0.00
M 0.00000 1 (120.00, 100.00, 0.00), (120.00, 100.00), 0.00
M 0.00000 2 (100.00, 100.00, 0.00), (100.00, 100.00), 0.00
M 0.00000 3 (150.00, 100.00, 0.00), (150.00, 100.00), 0.00
M 0.00000 4 (180.00, 150.00, 0.00), (180.00, 150.00), 0.00
M 0.00000 5 (200.00, 100.00, 0.00), (200.00, 100.00), 0.00
s -t 0.000000000 -Hs 0 -Hd -2 -Ni 0 -Nx 20.00 -Ny 100.00 -Nz 0.00 -Ne -1.000000 -Nl AGT -Nw --- -Ma 0 -Md 0 -Ms 0 -Mt 0 -Is 0.0 -Id 5.0 -It tcp -Il 40 -If 0 -Ii 0 -Iv 32 -Pn tcp -Ps 0 -Pa 0 -Pf 0 -Po 0 
r -t 0.000000000 -Hs 0 -Hd -2 -Ni 0 -Nx 20.00 -Ny 100.00 -Nz 0.00 -Ne -1.000000 -Nl RTR -Nw --- -Ma 0 -Md 0 -Ms 0 -Mt 0 -Is 0.0 -Id 5.0 -It tcp -Il 40 -If 0 -Ii 0 -Iv 32 -Pn tcp -Ps 0 -Pa 0 -Pf 0 -Po 0 
s -t 0.000000000 -Hs 0 -Hd -2 -Ni 0 -Nx 20.00 -Ny 100.00 -Nz 0.00 -Ne -1.000000 -Nl RTR -Nw --- -Ma 0 -Md 0 -Ms 0 -Mt 0 -Is 0.255 -Id -1.255 -It AODV -Il 48 -If 0 -Ii 0 -Iv 30 -P aodv -Pt 0x2 -Ph 1 -Pb 1 -Pd 5 -Pds 0 -Ps 0 -Pss 4 -Pc REQUEST 
s -t 0.000375000 -Hs 0 -Hd -2 -Ni 0 -Nx 20.00 -Ny 100.00 -Nz 0.00 -Ne -1.000000 -Nl MAC -Nw --- -Ma 0 -Md ffffffff -Ms 0 -Mt 800 -Is 0.255 -Id -1.255 -It AODV -Il 106 -If 0 -Ii 0 -Iv 30 -P aodv -Pt 0x2 -Ph 1 -Pb 1 -Pd 5 -Pds 0 -Ps 0 -Pss 4 -Pc REQUEST 
r -t 0.001223267 -Hs 2 -Hd -2 -Ni 2 -Nx 100.00 -Ny 100.00 -Nz 0.00 -Ne -1.000000 -Nl MAC -Nw --- -Ma 0 -Md ffffffff -Ms 0 -Mt 800 -Is 0.255 -Id -1.255 -It AODV -Il 48 -If 0 -Ii 0 -Iv 30 -P aodv -Pt 0x2 -Ph 1 -Pb 1 -Pd 5 -Pds 0 -Ps 0 -Pss 4 -Pc REQUEST 
r -t 0.001223333 -Hs 1 -Hd -2 -Ni 1 -Nx 120.00 -Ny 100.00 -Nz 0.00 -Ne -1.000000 -Nl MAC -Nw --- -Ma 0 -Md ffffffff -Ms 0 -Mt 800 -Is 0.255 -Id -1.255 -It AODV -Il 48 -If 0 -Ii 0 -Iv 30 -P aodv -Pt 0x2 -Ph 1 -Pb 1 -Pd 5 -Pds 0 -Ps 0 -Pss 4 -Pc REQUEST 
r -t 0.001223433 -Hs 3 -Hd -2 -Ni 3 -Nx 150.00 -Ny 100.00 -Nz 0.00 -Ne -1.000000 -Nl MAC -Nw --- -Ma 0 -Md ffffffff -Ms 0 -Mt 800 -Is 0.255 -Id -1.255 -It AODV -Il 48 -If 0 -Ii 0 -Iv 30 -P aodv -Pt 0x2 -Ph 1 -Pb 1 -Pd 5 -Pds 0 -Ps 0 -Pss 4 -Pc REQUEST 
r -t 0.001223559 -Hs 4 -Hd -2 -Ni 4 -Nx 180.00 -Ny 150.00 -Nz 0.00 -Ne -1.000000 -Nl MAC -Nw --- -Ma 0 -Md ffffffff -Ms 0 -Mt 800 -Is 0.255 -Id -1.255 -It AODV -Il 48 -If 0 -Ii 0 -Iv 30 -P aodv -Pt 0x2 -Ph 1 -Pb 1 -Pd 5 -Pds 0 -Ps 0 -Pss 4 -Pc REQUEST 
r -t 0.001223600 -Hs 5 -Hd -2 -Ni 5 -Nx 200.00 -Ny 100.00 -Nz 0.00 -Ne -1.000000 -Nl MAC -Nw --- -Ma 0 -Md ffffffff -Ms 0 -Mt 800 -Is 0.255 -Id -1.255 -It AODV -Il 48 -If 0 -Ii 0 -Iv 30 -P aodv -Pt 0x2 -Ph 1 -Pb 1 -Pd 5 -Pds 0 -Ps 0 -Pss 4 -Pc REQUEST 
r -t 0.001248267 -Hs 2 -Hd -2 -Ni 2 -Nx 100.00 -Ny 100.00 -Nz 0.00 -Ne -1.000000 -Nl RTR -Nw --- -Ma 0 -Md ffffffff -Ms 0 -Mt 800 -Is 0.255 -Id -1.255 -It AODV -Il 48 -If 0 -Ii 0 -Iv 30 -P aodv -Pt 0x2 -Ph 1 -Pb 1 -Pd 5 -Pds 0 -Ps 0 -Pss 4 -Pc REQUEST 
r -t 0.001248333 -Hs 1 -Hd -2 -Ni 1 -Nx 120.00 -Ny 100.00 -Nz 0.00 -Ne -1.000000 -Nl RTR -Nw --- -Ma 0 -Md ffffffff -Ms 0 -Mt 800 -Is 0.255 -Id -1.255 -It AODV -Il 48 -If 0 -Ii 0 -Iv 30 -P aodv -Pt 0x2 -Ph 1 -Pb 1 -Pd 5 -Pds 0 -Ps 0 -Pss 4 -Pc REQUEST 
r -t 0.001248433 -Hs 3 -Hd -2 -Ni 3 -Nx 150.00 -Ny 100.00 -Nz 0.00 -Ne -1.000000 -Nl RTR -Nw --- -Ma 0 -Md ffffffff -Ms 0 -Mt 800 -Is 0.255 -Id -1.255 -It AODV -Il 48 -If 0 -Ii 0 -Iv 30 -P aodv -Pt 0x2 -Ph 1 -Pb 1 -Pd 5 -Pds 0 -Ps 0 -Pss 4 -Pc REQUEST 
r -t 0.001248559 -Hs 4 -Hd -2 -Ni 4 -Nx 180.00 -Ny 150.00 -Nz 0.00 -Ne -1.000000 -Nl RTR -Nw --- -Ma 0 -Md ffffffff -Ms 0 -Mt 800 -Is 0.255 -Id -1.255 -It AODV -Il 48 -If 0 -Ii 0 -Iv 30 -P aodv -Pt 0x2 -Ph 1 -Pb 1 -Pd 5 -Pds 0 -Ps 0 -Pss 4 -Pc REQUEST 
r -t 0.001248600 -Hs 5 -Hd -2 -Ni 5 -Nx 200.00 -Ny 100.00 -Nz 0.00 -Ne -1.000000 -Nl RTR -Nw --- -Ma 0 -Md ffffffff -Ms 0 -Mt 800 -Is 0.255 -Id -1.255 -It AODV -Il 48 -If 0 -Ii 0 -Iv 30 -P aodv -Pt 0x2 -Ph 1 -Pb 1 -Pd 5 -Pds 0 -Ps 0 -Pss 4 -Pc REQUEST 
s -t 0.001248600 -Hs 5 -Hd 0 -Ni 5 -Nx 200.00 -Ny 100.00 -Nz 0.00 -Ne -1.000000 -Nl RTR -Nw --- -Ma 0 -Md 0 -Ms 0 -Mt 0 -Is 5.255 -Id 0.255 -It AODV -Il 44 -If 0 -Ii 0 -Iv 30 -P aodv -Pt 0x4 -Ph 1 -Pd 5 -Pds 4 -Pl 10.000000 -Pc REPLY 
s -t 0.001663600 -Hs 5 -Hd -2 -Ni 5 -Nx 200.00 -Ny 100.00 -Nz 0.00 -Ne -1.000000 -Nl MAC -Nw --- -Ma 0 -Md ffffffff -Ms 5 -Mt 806 -P arp -Po REQUEST -Pms 5 -Ps 5 -Pmd 0 -Pd 0 
r -t 0.002351767 -Hs 3 -Hd -2 -Ni 3 -Nx 150.00 -Ny 100.00 -Nz 0.00 -Ne -1.000000 -Nl MAC -Nw --- -Ma 0 -Md ffffffff -Ms 5 -Mt 806 -P arp -Po REQUEST -Pms 5 -Ps 5 -Pmd 0 -Pd 0 
r -t 0.002351780 -Hs 4 -Hd -2 -Ni 4 -Nx 180.00 -Ny 150.00 -Nz 0.00 -Ne -1.000000 -Nl MAC -Nw --- -Ma 0 -Md ffffffff -Ms 5 -Mt 806 -P arp -Po REQUEST -Pms 5 -Ps 5 -Pmd 0 -Pd 0 
r -t 0.002351867 -Hs 1 -Hd -2 -Ni 1 -Nx 120.00 -Ny 100.00 -Nz 0.00 -Ne -1.000000 -Nl MAC -Nw --- -Ma 0 -Md ffffffff -Ms 5 -Mt 806 -P arp -Po REQUEST -Pms 5 -Ps 5 -Pmd 0 -Pd 0 
r -t 0.002351933 -Hs 2 -Hd -2 -Ni 2 -Nx 100.00 -Ny 100.00 -Nz 0.00 -Ne -1.000000 -Nl MAC -Nw --- -Ma 0 -Md ffffffff -Ms 5 -Mt 806 -P arp -Po REQUEST -Pms 5 -Ps 5 -Pmd 0 -Pd 0 
r -t 0.002352200 -Hs 0 -Hd -2 -Ni 0 -Nx 20.00 -Ny 100.00 -Nz 0.00 -Ne -1.000000 -Nl MAC -Nw --- -Ma 0 -Md ffffffff -Ms 5 -Mt 806 -P arp -Po REQUEST -Pms 5 -Ps 5 -Pmd 0 -Pd 0 
s -t 0.002647200 -Hs 0 -Hd -2 -Ni 0 -Nx 20.00 -Ny 100.00 -Nz 0.00 -Ne -1.000000 -Nl MAC -Nw --- -Ma 52e -Md 5 -Ms 0 -Mt 0 
r -t 0.002999800 -Hs 5 -Hd -2 -Ni 5 -Nx 200.00 -Ny 100.00 -Nz 0.00 -Ne -1.000000 -Nl MAC -Nw --- -Ma 52e -Md 5 -Ms 0 -Mt 0 
s -t 0.003009800 -Hs 5 -Hd -2 -Ni 5 -Nx 200.00 -Ny 100.00 -Nz 0.00 -Ne -1.000000 -Nl MAC -Nw --- -Ma 3f4 -Md 0 -Ms 0 -Mt 0 
r -t 0.003314400 -Hs 0 -Hd -2 -Ni 0 -Nx 20.00 -Ny 100.00 -Nz 0.00 -Ne -1.000000 -Nl MAC -Nw --- -Ma 3f4 -Md 0 -Ms 0 -Mt 0 
s -t 0.003324400 -Hs 0 -Hd -2 -Ni 0 -Nx 20.00 -Ny 100.00 -Nz 0.00 -Ne -1.000000 -Nl MAC -Nw --- -Ma 13a -Md 5 -Ms 0 -Mt 806 -P arp -Po REPLY -Pms 0 -Ps 0 -Pmd 5 -Pd 5 
s -t 0.003594576 -Hs 4 -Hd -2 -Ni 4 -Nx 180.00 -Ny 150.00 -Nz 0.00 -Ne -1.000000 -Nl RTR -Nw --- -Ma 0 -Md ffffffff -Ms 0 -Mt 800 -Is 4.255 -Id -1.255 -It AODV -Il 48 -If 0 -Ii 0 -Iv 29 -P aodv -Pt 0x2 -Ph 2 -Pb 1 -Pd 5 -Pds 0 -Ps 0 -Pss 4 -Pc REQUEST 
r -t 0.004013000 -Hs 5 -Hd -2 -Ni 5 -Nx 200.00 -Ny 100.00 -Nz 0.00 -Ne -1.000000 -Nl MAC -Nw --- -Ma 13a -Md 5 -Ms 0 -Mt 806 -P arp -Po REPLY -Pms 0 -Ps 0 -Pmd 5 -Pd 5 
s -t 0.004023000 -Hs 5 -Hd -2 -Ni 5 -Nx 200.00 -Ny 100.00 -Nz 0.00 -Ne -1.000000 -Nl MAC -Nw --- -Ma 0 -Md 0 -Ms 0 -Mt 0 
r -t 0.004327600 -Hs 0 -Hd -2 -Ni 0 -Nx 20.00 -Ny 100.00 -Nz 0.00 -Ne -1.000000 -Nl MAC -Nw --- -Ma 0 -Md 0 -Ms 0 -Mt 0 
s -t 0.004377951 -Hs 1 -Hd -2 -Ni 1 -Nx 120.00 -Ny 100.00 -Nz 0.00 -Ne -1.000000 -Nl RTR -Nw --- -Ma 0 -Md ffffffff -Ms 0 -Mt 800 -Is 1.255 -Id -1.255 -It AODV -Il 48 -If 0 -Ii 0 -Iv 29 -P aodv -Pt 0x2 -Ph 2 -Pb 1 -Pd 5 -Pds 0 -Ps 0 -Pss 4 -Pc REQUEST 
s -t 0.004397000 -Hs 5 -Hd -2 -Ni 5 -Nx 200.00 -Ny 100.00 -Nz 0.00 -Ne -1.000000 -Nl MAC -Nw --- -Ma 5ae -Md 0 -Ms 5 -Mt 0 
r -t 0.004749600 -Hs 0 -Hd -2 -Ni 0 -Nx 20.00 -Ny 100.00 -Nz 0.00 -Ne -1.000000 -Nl MAC -Nw --- -Ma 5ae -Md 0 -Ms 5 -Mt 0 
s -t 0.004759600 -Hs 0 -Hd -2 -Ni 0 -Nx 20.00 -Ny 100.00 -Nz 0.00 -Ne -1.000000 -Nl MAC -Nw --- -Ma 474 -Md 5 -Ms 0 -Mt 0 
r -t 0.005064200 -Hs 5 -Hd -2 -Ni 5 -Nx 200.00 -Ny 100.00 -Nz 0.00 -Ne -1.000000 -Nl MAC -Nw --- -Ma 474 -Md 5 -Ms 0 -Mt 0 
s -t 0.005074200 -Hs 5 -Hd 0 -Ni 5 -Nx 200.00 -Ny 100.00 -Nz 0.00 -Ne -1.000000 -Nl MAC -Nw --- -Ma 13a -Md 0 -Ms 5 -Mt 800 -Is 5.255 -Id 0.255 -It AODV -Il 102 -If 0 -Ii 0 -Iv 30 -P aodv -Pt 0x4 -Ph 1 -Pd 5 -Pds 4 -Pl 10.000000 -Pc REPLY 
r -t 0.005890800 -Hs 0 -Hd 0 -Ni 0 -Nx 20.00 -Ny 100.00 -Nz 0.00 -Ne -1.000000 -Nl MAC -Nw --- -Ma 13a -Md 0 -Ms 5 -Mt 800 -Is 5.255 -Id 0.255 -It AODV -Il 44 -If 0 -Ii 0 -Iv 30 -P aodv -Pt 0x4 -Ph 1 -Pd 5 -Pds 4 -Pl 10.000000 -Pc REPLY 
s -t 0.005900800 -Hs 0 -Hd -2 -Ni 0 -Nx 20.00 -Ny 100.00 -Nz 0.00 -Ne -1.000000 -Nl MAC -Nw --- -Ma 0 -Md 5 -Ms 0 -Mt 0 
r -t 0.005915800 -Hs 0 -Hd 0 -Ni 0 -Nx 20.00 -Ny 100.00 -Nz 0.00 -Ne -1.000000 -Nl RTR -Nw --- -Ma 13a -Md 0 -Ms 5 -Mt 800 -Is 5.255 -Id 0.255 -It AODV -Il 44 -If 0 -Ii 0 -Iv 30 -P aodv -Pt 0x4 -Ph 1 -Pd 5 -Pds 4 -Pl 10.000000 -Pc REPLY 
s -t 0.005915800 -Hs 0 -Hd 5 -Ni 0 -Nx 20.00 -Ny 100.00 -Nz 0.00 -Ne -1.000000 -Nl RTR -Nw --- -Ma 0 -Md 0 -Ms 0 -Mt 0 -Is 0.0 -Id 5.0 -It tcp -Il 40 -If 0 -Ii 0 -Iv 30 -Pn tcp -Ps 0 -Pa 0 -Pf 0 -Po 0 
r -t 0.006205400 -Hs 5 -Hd -2 -Ni 5 -Nx 200.00 -Ny 100.00 -Nz 0.00 -Ne -1.000000 -Nl MAC -Nw --- -Ma 0 -Md 5 -Ms 0 -Mt 0 
s -t 0.006275359 -Hs 4 -Hd -2 -Ni 4 -Nx 180.00 -Ny 150.00 -Nz 0.00 -Ne -1.000000 -Nl MAC -Nw --- -Ma 0 -Md ffffffff -Ms 4 -Mt 800 -Is 4.255 -Id -1.255 -It AODV -Il 106 -If 0 -Ii 0 -Iv 29 -P aodv -Pt 0x2 -Ph 2 -Pb 1 -Pd 5 -Pds 0 -Ps 0 -Pss 4 -Pc REQUEST 
r -t 0.007123538 -Hs 5 -Hd -2 -Ni 5 -Nx 200.00 -Ny 100.00 -Nz 0.00 -Ne -1.000000 -Nl MAC -Nw --- -Ma 0 -Md ffffffff -Ms 4 -Mt 800 -Is 4.255 -Id -1.255 -It AODV -Il 48 -If 0 -Ii 0 -Iv 29 -P aodv -Pt 0x2 -Ph 2 -Pb 1 -Pd 5 -Pds 0 -Ps 0 -Pss 4 -Pc REQUEST 
r -t 0.007123553 -Hs 3 -Hd -2 -Ni 3 -Nx 150.00 -Ny 100.00 -Nz 0.00 -Ne -1.000000 -Nl MAC -Nw --- -Ma 0 -Md ffffffff -Ms 4 -Mt 800 -Is 4.255 -Id -1.255 -It AODV -Il 48 -If 0 -Ii 0 -Iv 29 -P aodv -Pt 0x2 -Ph 2 -Pb 1 -Pd 5 -Pds 0 -Ps 0 -Pss 4 -Pc REQUEST 
r -t 0.007123619 -Hs 1 -Hd -2 -Ni 1 -Nx 120.00 -Ny 100.00 -Nz 0.00 -Ne -1.000000 -Nl MAC -Nw --- -Ma 0 -Md ffffffff -Ms 4 -Mt 800 -Is 4.255 -Id -1.255 -It AODV -Il 48 -If 0 -Ii 0 -Iv 29 -P aodv -Pt 0x2 -Ph 2 -Pb 1 -Pd 5 -Pds 0 -Ps 0 -Pss 4 -Pc REQUEST 
r -t 0.007123673 -Hs 2 -Hd -2 -Ni 2 -Nx 100.00 -Ny 100.00 -Nz 0.00 -Ne -1.000000 -Nl MAC -Nw --- -Ma 0 -Md ffffffff -Ms 4 -Mt 800 -Is 4.255 -Id -1.255 -It AODV -Il 48 -If 0 -Ii 0 -Iv 29 -P aodv -Pt 0x2 -Ph 2 -Pb 1 -Pd 5 -Pds 0 -Ps 0 -Pss 4 -Pc REQUEST 
r -t 0.007123918 -Hs 0 -Hd -2 -Ni 0 -Nx 20.00 -Ny 100.00 -Nz 0.00 -Ne -1.000000 -Nl MAC -Nw --- -Ma 0 -Md ffffffff -Ms 4 -Mt 800 -Is 4.255 -Id -1.255 -It AODV -Il 48 -If 0 -Ii 0 -Iv 29 -P aodv -Pt 0x2 -Ph 2 -Pb 1 -Pd 5 -Pds 0 -Ps 0 -Pss 4 -Pc REQUEST 
r -t 0.007148538 -Hs 5 -Hd -2 -Ni 5 -Nx 200.00 -Ny 100.00 -Nz 0.00 -Ne -1.000000 -Nl RTR -Nw --- -Ma 0 -Md ffffffff -Ms 4 -Mt 800 -Is 4.255 -Id -1.255 -It AODV -Il 48 -If 0 -Ii 0 -Iv 29 -P aodv -Pt 0x2 -Ph 2 -Pb 1 -Pd 5 -Pds 0 -Ps 0 -Pss 4 -Pc REQUEST 
r -t 0.007148553 -Hs 3 -Hd -2 -Ni 3 -Nx 150.00 -Ny 100.00 -Nz 0.00 -Ne -1.000000 -Nl RTR -Nw --- -Ma 0 -Md ffffffff -Ms 4 -Mt 800 -Is 4.255 -Id -1.255 -It AODV -Il 48 -If 0 -Ii 0 -Iv 29 -P aodv -Pt 0x2 -Ph 2 -Pb 1 -Pd 5 -Pds 0 -Ps 0 -Pss 4 -Pc REQUEST 
r -t 0.007148619 -Hs 1 -Hd -2 -Ni 1 -Nx 120.00 -Ny 100.00 -Nz 0.00 -Ne -1.000000 -Nl RTR -Nw --- -Ma 0 -Md ffffffff -Ms 4 -Mt 800 -Is 4.255 -Id -1.255 -It AODV -Il 48 -If 0 -Ii 0 -Iv 29 -P aodv -Pt 0x2 -Ph 2 -Pb 1 -Pd 5 -Pds 0 -Ps 0 -Pss 4 -Pc REQUEST 
r -t 0.007148673 -Hs 2 -Hd -2 -Ni 2 -Nx 100.00 -Ny 100.00 -Nz 0.00 -Ne -1.000000 -Nl RTR -Nw --- -Ma 0 -Md ffffffff -Ms 4 -Mt 800 -Is 4.255 -Id -1.255 -It AODV -Il 48 -If 0 -Ii 0 -Iv 29 -P aodv -Pt 0x2 -Ph 2 -Pb 1 -Pd 5 -Pds 0 -Ps 0 -Pss 4 -Pc REQUEST 
r -t 0.007148918 -Hs 0 -Hd -2 -Ni 0 -Nx 20.00 -Ny 100.00 -Nz 0.00 -Ne -1.000000 -Nl RTR -Nw --- -Ma 0 -Md ffffffff -Ms 4 -Mt 800 -Is 4.255 -Id -1.255 -It AODV -Il 48 -If 0 -Ii 0 -Iv 29 -P aodv -Pt 0x2 -Ph 2 -Pb 1 -Pd 5 -Pds 0 -Ps 0 -Pss 4 -Pc REQUEST 
s -t 0.007313619 -Hs 1 -Hd -2 -Ni 1 -Nx 120.00 -Ny 100.00 -Nz 0.00 -Ne -1.000000 -Nl MAC -Nw --- -Ma 0 -Md ffffffff -Ms 1 -Mt 800 -Is 1.255 -Id -1.255 -It AODV -Il 106 -If 0 -Ii 0 -Iv 29 -P aodv -Pt 0x2 -Ph 2 -Pb 1 -Pd 5 -Pds 0 -Ps 0 -Pss 4 -Pc REQUEST 
r -t 0.008161686 -Hs 2 -Hd -2 -Ni 2 -Nx 100.00 -Ny 100.00 -Nz 0.00 -Ne -1.000000 -Nl MAC -Nw --- -Ma 0 -Md ffffffff -Ms 1 -Mt 800 -Is 1.255 -Id -1.255 -It AODV -Il 48 -If 0 -Ii 0 -Iv 29 -P aodv -Pt 0x2 -Ph 2 -Pb 1 -Pd 5 -Pds 0 -Ps 0 -Pss 4 -Pc REQUEST 
r -t 0.008161719 -Hs 3 -Hd -2 -Ni 3 -Nx 150.00 -Ny 100.00 -Nz 0.00 -Ne -1.000000 -Nl MAC -Nw --- -Ma 0 -Md ffffffff -Ms 1 -Mt 800 -Is 1.255 -Id -1.255 -It AODV -Il 48 -If 0 -Ii 0 -Iv 29 -P aodv -Pt 0x2 -Ph 2 -Pb 1 -Pd 5 -Pds 0 -Ps 0 -Pss 4 -Pc REQUEST 
r -t 0.008161879 -Hs 4 -Hd -2 -Ni 4 -Nx 180.00 -Ny 150.00 -Nz 0.00 -Ne -1.000000 -Nl MAC -Nw --- -Ma 0 -Md ffffffff -Ms 1 -Mt 800 -Is 1.255 -Id -1.255 -It AODV -Il 48 -If 0 -Ii 0 -Iv 29 -P aodv -Pt 0x2 -Ph 2 -Pb 1 -Pd 5 -Pds 0 -Ps 0 -Pss 4 -Pc REQUEST 
r -t 0.008161886 -Hs 5 -Hd -2 -Ni 5 -Nx 200.00 -Ny 100.00 -Nz 0.00 -Ne -1.000000 -Nl MAC -Nw --- -Ma 0 -Md ffffffff -Ms 1 -Mt 800 -Is 1.255 -Id -1.255 -It AODV -Il 48 -If 0 -Ii 0 -Iv 29 -P aodv -Pt 0x2 -Ph 2 -Pb 1 -Pd 5 -Pds 0 -Ps 0 -Pss 4 -Pc REQUEST 
r -t 0.008161952 -Hs 0 -Hd -2 -Ni 0 -Nx 20.00 -Ny 100.00 -Nz 0.00 -Ne -1.000000 -Nl MAC -Nw --- -Ma 0 -Md ffffffff -Ms 1 -Mt 800 -Is 1.255 -Id -1.255 -It AODV -Il 48 -If 0 -Ii 0 -Iv 29 -P aodv -Pt 0x2 -Ph 2 -Pb 1 -Pd 5 -Pds 0 -Ps 0 -Pss 4 -Pc REQUEST 
r -t 0.008186686 -Hs 2 -Hd -2 -Ni 2 -Nx 100.00 -Ny 100.00 -Nz 0.00 -Ne -1.000000 -Nl RTR -Nw --- -Ma 0 -Md ffffffff -Ms 1 -Mt 800 -Is 1.255 -Id -1.255 -It AODV -Il 48 -If 0 -Ii 0 -Iv 29 -P aodv -Pt 0x2 -Ph 2 -Pb 1 -Pd 5 -Pds 0 -Ps 0 -Pss 4 -Pc REQUEST 
r -t 0.008186719 -Hs 3 -Hd -2 -Ni 3 -Nx 150.00 -Ny 100.00 -Nz 0.00 -Ne -1.000000 -Nl RTR -Nw --- -Ma 0 -Md ffffffff -Ms 1 -Mt 800 -Is 1.255 -Id -1.255 -It AODV -Il 48 -If 0 -Ii 0 -Iv 29 -P aodv -Pt 0x2 -Ph 2 -Pb 1 -Pd 5 -Pds 0 -Ps 0 -Pss 4 -Pc REQUEST 
r -t 0.008186879 -Hs 4 -Hd -2 -Ni 4 -Nx 180.00 -Ny 150.00 -Nz 0.00 -Ne -1.000000 -Nl RTR -Nw --- -Ma 0 -Md ffffffff -Ms 1 -Mt 800 -Is 1.255 -Id -1.255 -It AODV -Il 48 -If 0 -Ii 0 -Iv 29 -P aodv -Pt 0x2 -Ph 2 -Pb 1 -Pd 5 -Pds 0 -Ps 0 -Pss 4 -Pc REQUEST 
r -t 0.008186886 -Hs 5 -Hd -2 -Ni 5 -Nx 200.00 -Ny 100.00 -Nz 0.00 -Ne -1.000000 -Nl RTR -Nw --- -Ma 0 -Md ffffffff -Ms 1 -Mt 800 -Is 1.255 -Id -1.255 -It AODV -Il 48 -If 0 -Ii 0 -Iv 29 -P aodv -Pt 0x2 -Ph 2 -Pb 1 -Pd 5 -Pds 0 -Ps 0 -Pss 4 -Pc REQUEST 
r -t 0.008186952 -Hs 0 -Hd -2 -Ni 0 -Nx 20.00 -Ny 100.00 -Nz 0.00 -Ne -1.000000 -Nl RTR -Nw --- -Ma 0 -Md ffffffff -Ms 1 -Mt 800 -Is 1.255 -Id -1.255 -It AODV -Il 48 -If 0 -Ii 0 -Iv 29 -P aodv -Pt 0x2 -Ph 2 -Pb 1 -Pd 5 -Pds 0 -Ps 0 -Pss 4 -Pc REQUEST 
s -t 0.008571952 -Hs 0 -Hd -2 -Ni 0 -Nx 20.00 -Ny 100.00 -Nz 0.00 -Ne -1.000000 -Nl MAC -Nw --- -Ma 58e -Md 5 -Ms 0 -Mt 0 
r -t 0.008924552 -Hs 5 -Hd -2 -Ni 5 -Nx 200.00 -Ny 100.00 -Nz 0.00 -Ne -1.000000 -Nl MAC -Nw --- -Ma 58e -Md 5 -Ms 0 -Mt 0 
s -t 0.008934552 -Hs 5 -Hd -2 -Ni 5 -Nx 200.00 -Ny 100.00 -Nz 0.00 -Ne -1.000000 -Nl MAC -Nw --- -Ma 454 -Md 0 -Ms 0 -Mt 0 
r -t 0.009239152 -Hs 0 -Hd -2 -Ni 0 -Nx 20.00 -Ny 100.00 -Nz 0.00 -Ne -1.000000 -Nl MAC -Nw --- -Ma 454 -Md 0 -Ms 0 -Mt 0 
s -t 0.009239821 -Hs 2 -Hd -2 -Ni 2 -Nx 100.00 -Ny 100.00 -Nz 0.00 -Ne -1.000000 -Nl RTR -Nw --- -Ma 0 -Md ffffffff -Ms 0 -Mt 800 -Is 2.255 -Id -1.255 -It AODV -Il 48 -If 0 -Ii 0 -Iv 29 -P aodv -Pt 0x2 -Ph 2 -Pb 1 -Pd 5 -Pds 0 -Ps 0 -Pss 4 -Pc REQUEST 
s -t 0.009249152 -Hs 0 -Hd 5 -Ni 0 -Nx 20.00 -Ny 100.00 -Nz 0.00 -Ne -1.000000 -Nl MAC -Nw --- -Ma 13a -Md 5 -Ms 0 -Mt 800 -Is 0.0 -Id 5.0 -It tcp -Il 98 -If 0 -Ii 0 -Iv 30 -Pn tcp -Ps 0 -Pa 0 -Pf 0 -Po 0 
s -t 0.009413194 -Hs 3 -Hd -2 -Ni 3 -Nx 150.00 -Ny 100.00 -Nz 0.00 -Ne -1.000000 -Nl RTR -Nw --- -Ma 0 -Md ffffffff -Ms 0 -Mt 800 -Is 3.255 -Id -1.255 -It AODV -Il 48 -If 0 -Ii 0 -Iv 29 -P aodv -Pt 0x2 -Ph 2 -Pb 1 -Pd 5 -Pds 0 -Ps 0 -Pss 4 -Pc REQUEST 
r -t 0.010033752 -Hs 5 -Hd 5 -Ni 5 -Nx 200.00 -Ny 100.00 -Nz 0.00 -Ne -1.000000 -Nl MAC -Nw --- -Ma 13a -Md 5 -Ms 0 -Mt 800 -Is 0.0 -Id 5.0 -It tcp -Il 40 -If 0 -Ii 0 -Iv 30 -Pn tcp -Ps 0 -Pa 0 -Pf 1 -Po 0 
s -t 0.010043752 -Hs 5 -Hd -2 -Ni 5 -Nx 200.00 -Ny 100.00 -Nz 0.00 -Ne -1.000000 -Nl MAC -Nw --- -Ma 0 -Md 0 -Ms 0 -Mt 0 
r -t 0.010058752 -Hs 5 -Hd 5 -Ni 5 -Nx 200.00 -Ny 100.00 -Nz 0.00 -Ne -1.000000 -Nl AGT -Nw --- -Ma 13a -Md 5 -Ms 0 -Mt 800 -Is 0.0 -Id 5.0 -It tcp -Il 40 -If 0 -Ii 0 -Iv 30 -Pn tcp -Ps 0 -Pa 0 -Pf 1 -Po 0 
s -t 0.010058752 -Hs 5 -Hd -2 -Ni 5 -Nx 200.00 -Ny 100.00 -Nz 0.00 -Ne -1.000000 -Nl AGT -Nw --- -Ma 0 -Md 0 -Ms 0 -Mt 0 -Is 5.0 -Id 0.0 -It ack -Il 40 -If 0 -Ii 1 -Iv 32 -Pn tcp -Ps 0 -Pa 0 -Pf 0 -Po 0 
r -t 0.010058752 -Hs 5 -Hd -2 -Ni 5 -Nx 200.00 -Ny 100.00 -Nz 0.00 -Ne -1.000000 -Nl RTR -Nw --- -Ma 0 -Md 0 -Ms 0 -Mt 0 -Is 5.0 -Id 0.0 -It ack -Il 40 -If 0 -Ii 1 -Iv 32 -Pn tcp -Ps 0 -Pa 0 -Pf 0 -Po 0 
s -t 0.010058752 -Hs 5 -Hd 0 -Ni 5 -Nx 200.00 -Ny 100.00 -Nz 0.00 -Ne -1.000000 -Nl RTR -Nw --- -Ma 0 -Md 0 -Ms 0 -Mt 0 -Is 5.0 -Id 0.0 -It ack -Il 40 -If 0 -Ii 1 -Iv 30 -Pn tcp -Ps 0 -Pa 0 -Pf 0 -Po 0 
r -t 0.010348352 -Hs 0 -Hd -2 -Ni 0 -Nx 20.00 -Ny 100.00 -Nz 0.00 -Ne -1.000000 -Nl MAC -Nw --- -Ma 0 -Md 0 -Ms 0 -Mt 0 
s -t 0.010717752 -Hs 5 -Hd -2 -Ni 5 -Nx 200.00 -Ny 100.00 -Nz 0.00 -Ne -1.000000 -Nl MAC -Nw --- -Ma 58e -Md 0 -Ms 5 -Mt 0 
r -t 0.011070352 -Hs 0 -Hd -2 -Ni 0 -Nx 20.00 -Ny 100.00 -Nz 0.00 -Ne -1.000000 -Nl MAC -Nw --- -Ma 58e -Md 0 -Ms 5 -Mt 0 
s -t 0.011080352 -Hs 0 -Hd -2 -Ni 0 -Nx 20.00 -Ny 100.00 -Nz 0.00 -Ne -1.000000 -Nl MAC -Nw --- -Ma 454 -Md 5 -Ms 0 -Mt 0 
r -t 0.011384952 -Hs 5 -Hd -2 -Ni 5 -Nx 200.00 -Ny 100.00 -Nz 0.00 -Ne -1.000000 -Nl MAC -Nw --- -Ma 454 -Md 5 -Ms 0 -Mt 0 
s -t 0.011394952 -Hs 5 -Hd 0 -Ni 5 -Nx 200.00 -Ny 100.00 -Nz 0.00 -Ne -1.000000 -Nl MAC -Nw --- -Ma 13a -Md 0 -Ms 5 -Mt 800 -Is 5.0 -Id 0.0 -It ack -Il 98 -If 0 -Ii 1 -Iv 30 -Pn tcp -Ps 0 -Pa 0 -Pf 0 -Po 0 
r -t 0.012179552 -Hs 0 -Hd 0 -Ni 0 -Nx 20.00 -Ny 100.00 -Nz 0.00 -Ne -1.000000 -Nl MAC -Nw --- -Ma 13a -Md 0 -Ms 5 -Mt 800 -Is 5.0 -Id 0.0 -It ack -Il 40 -If 0 -Ii 1 -Iv 30 -Pn tcp -Ps 0 -Pa 0 -Pf 1 -Po 0 
s -t 0.012189552 -Hs 0 -Hd -2 -Ni 0 -Nx 20.00 -Ny 100.00 -Nz 0.00 -Ne -1.000000 -Nl MAC -Nw --- -Ma 0 -Md 5 -Ms 0 -Mt 0 
r -t 0.012204552 -Hs 0 -Hd 0 -Ni 0 -Nx 20.00 -Ny 100.00 -Nz 0.00 -Ne -1.000000 -Nl AGT -Nw --- -Ma 13a -Md 0 -Ms 5 -Mt 800 -Is 5.0 -Id 0.0 -It ack -Il 40 -If 0 -Ii 1 -Iv 30 -Pn tcp -Ps 0 -Pa 0 -Pf 1 -Po 0 
s -t 0.012204552 -Hs 0 -Hd -2 -Ni 0 -Nx 20.00 -Ny 100.00 -Nz 0.00 -Ne -1.000000 -Nl AGT -Nw --- -Ma 0 -Md 0 -Ms 0 -Mt 0 -Is 0.0 -Id 5.0 -It tcp -Il 1040 -If 0 -Ii 2 -Iv 32 -Pn tcp -Ps 1 -Pa 0 -Pf 0 -Po 0 
r -t 0.012204552 -Hs 0 -Hd -2 -Ni 0 -Nx 20.00 -Ny 100.00 -Nz 0.00 -Ne -1.000000 -Nl RTR -Nw --- -Ma 0 -Md 0 -Ms 0 -Mt 0 -Is 0.0 -Id 5.0 -It tcp -Il 1040 -If 0 -Ii 2 -Iv 32 -Pn tcp -Ps 1 -Pa 0 -Pf 0 -Po 0 
s -t 0.012204552 -Hs 0 -Hd -2 -Ni 0 -Nx 20.00 -Ny 100.00 -Nz 0.00 -Ne -1.000000 -Nl AGT -Nw --- -Ma 0 -Md 0 -Ms 0 -Mt 0 -Is 0.0 -Id 5.0 -It tcp -Il 1040 -If 0 -Ii 3 -Iv 32 -Pn tcp -Ps 2 -Pa 0 -Pf 0 -Po 0 
r -t 0.012204552 -Hs 0 -Hd -2 -Ni 0 -Nx 20.00 -Ny 100.00 -Nz 0.00 -Ne -1.000000 -Nl RTR -Nw --- -Ma 0 -Md 0 -Ms 0 -Mt 0 -Is 0.0 -Id 5.0 -It tcp -Il 1040 -If 0 -Ii 3 -Iv 32 -Pn tcp -Ps 2 -Pa 0 -Pf 0 -Po 0 
s -t 0.012204552 -Hs 0 -Hd 5 -Ni 0 -Nx 20.00 -Ny 100.00 -Nz 0.00 -Ne -1.000000 -Nl RTR -Nw --- -Ma 0 -Md 0 -Ms 0 -Mt 0 -Is 0.0 -Id 5.0 -It tcp -Il 1040 -If 0 -Ii 2 -Iv 30 -Pn tcp -Ps 1 -Pa 0 -Pf 0 -Po 0 
s -t 0.012204552 -Hs 0 -Hd 5 -Ni 0 -Nx 20.00 -Ny 100.00 -Nz 0.00 -Ne -1.000000 -Nl RTR -Nw --- -Ma 0 -Md 0 -Ms 0 -Mt 0 -Is 0.0 -Id 5.0 -It tcp -Il 1040 -If 0 -Ii 3 -Iv 30 -Pn tcp -Ps 2 -Pa 0 -Pf 0 -Po 0 
r -t 0.012494152 -Hs 5 -Hd -2 -Ni 5 -Nx 200.00 -Ny 100.00 -Nz 0.00 -Ne -1.000000 -Nl MAC -Nw --- -Ma 0 -Md 5 -Ms 0 -Mt 0 
s -t 0.012563986 -Hs 3 -Hd -2 -Ni 3 -Nx 150.00 -Ny 100.00 -Nz 0.00 -Ne -1.000000 -Nl MAC -Nw --- -Ma 0 -Md ffffffff -Ms 3 -Mt 800 -Is 3.255 -Id -1.255 -It AODV -Il 106 -If 0 -Ii 0 -Iv 29 -P aodv -Pt 0x2 -Ph 2 -Pb 1 -Pd 5 -Pds 0 -Ps 0 -Pss 4 -Pc REQUEST 
r -t 0.013412086 -Hs 1 -Hd -2 -Ni 1 -Nx 120.00 -Ny 100.00 -Nz 0.00 -Ne -1.000000 -Nl MAC -Nw --- -Ma 0 -Md ffffffff -Ms 3 -Mt 800 -Is 3.255 -Id -1.255 -It AODV -Il 48 -If 0 -Ii 0 -Iv 29 -P aodv -Pt 0x2 -Ph 2 -Pb 1 -Pd 5 -Pds 0 -Ps 0 -Pss 4 -Pc REQUEST 
r -t 0.013412152 -Hs 2 -Hd -2 -Ni 2 -Nx 100.00 -Ny 100.00 -Nz 0.00 -Ne -1.000000 -Nl MAC -Nw --- -Ma 0 -Md ffffffff -Ms 3 -Mt 800 -Is 3.255 -Id -1.255 -It AODV -Il 48 -If 0 -Ii 0 -Iv 29 -P aodv -Pt 0x2 -Ph 2 -Pb 1 -Pd 5 -Pds 0 -Ps 0 -Pss 4 -Pc REQUEST 
r -t 0.013412152 -Hs 5 -Hd -2 -Ni 5 -Nx 200.00 -Ny 100.00 -Nz 0.00 -Ne -1.000000 -Nl MAC -Nw --- -Ma 0 -Md ffffffff -Ms 3 -Mt 800 -Is 3.255 -Id -1.255 -It AODV -Il 48 -If 0 -Ii 0 -Iv 29 -P aodv -Pt 0x2 -Ph 2 -Pb 1 -Pd 5 -Pds 0 -Ps 0 -Pss 4 -Pc REQUEST 
r -t 0.013412180 -Hs 4 -Hd -2 -Ni 4 -Nx 180.00 -Ny 150.00 -Nz 0.00 -Ne -1.000000 -Nl MAC -Nw --- -Ma 0 -Md ffffffff -Ms 3 -Mt 800 -Is 3.255 -Id -1.255 -It AODV -Il 48 -If 0 -Ii 0 -Iv 29 -P aodv -Pt 0x2 -Ph 2 -Pb 1 -Pd 5 -Pds 0 -Ps 0 -Pss 4 -Pc REQUEST 
r -t 0.013412419 -Hs 0 -Hd -2 -Ni 0 -Nx 20.00 -Ny 100.00 -Nz 0.00 -Ne -1.000000 -Nl MAC -Nw --- -Ma 0 -Md ffffffff -Ms 3 -Mt 800 -Is 3.255 -Id -1.255 -It AODV -Il 48 -If 0 -Ii 0 -Iv 29 -P aodv -Pt 0x2 -Ph 2 -Pb 1 -Pd 5 -Pds 0 -Ps 0 -Pss 4 -Pc REQUEST 
r -t 0.013437086 -Hs 1 -Hd -2 -Ni 1 -Nx 120.00 -Ny 100.00 -Nz 0.00 -Ne -1.000000 -Nl RTR -Nw --- -Ma 0 -Md ffffffff -Ms 3 -Mt 800 -Is 3.255 -Id -1.255 -It AODV -Il 48 -If 0 -Ii 0 -Iv 29 -P aodv -Pt 0x2 -Ph 2 -Pb 1 -Pd 5 -Pds 0 -Ps 0 -Pss 4 -Pc REQUEST 
r -t 0.013437152 -Hs 2 -Hd -2 -Ni 2 -Nx 100.00 -Ny 100.00 -Nz 0.00 -Ne -1.000000 -Nl RTR -Nw --- -Ma 0 -Md ffffffff -Ms 3 -Mt 800 -Is 3.255 -Id -1.255 -It AODV -Il 48 -If 0 -Ii 0 -Iv 29 -P aodv -Pt 0x2 -Ph 2 -Pb 1 -Pd 5 -Pds 0 -Ps 0 -Pss 4 -Pc REQUEST 
r -t 0.013437152 -Hs 5 -Hd -2 -Ni 5 -Nx 200.00 -Ny 100.00 -Nz 0.00 -Ne -1.000000 -Nl RTR -Nw --- -Ma 0 -Md ffffffff -Ms 3 -Mt 800 -Is 3.255 -Id -1.255 -It AODV -Il 48 -If 0 -Ii 0 -Iv 29 -P aodv -Pt 0x2 -Ph 2 -Pb 1 -Pd 5 -Pds 0 -Ps 0 -Pss 4 -Pc REQUEST 
r -t 0.013437180 -Hs 4 -Hd -2 -Ni 4 -Nx 180.00 -Ny 150.00 -Nz 0.00 -Ne -1.000000 -Nl RTR -Nw --- -Ma 0 -Md ffffffff -Ms 3 -Mt 800 -Is 3.255 -Id -1.255 -It AODV -Il 48 -If 0 -Ii 0 -Iv 29 -P aodv -Pt 0x2 -Ph 2 -Pb 1 -Pd 5 -Pds 0 -Ps 0 -Pss 4 -Pc REQUEST 
r -t 0.013437419 -Hs 0 -Hd -2 -Ni 0 -Nx 20.00 -Ny 100.00 -Nz 0.00 -Ne -1.000000 -Nl RTR -Nw --- -Ma 0 -Md ffffffff -Ms 3 -Mt 800 -Is 3.255 -Id -1.255 -It AODV -Il 48 -If 0 -Ii 0 -Iv 29 -P aodv -Pt 0x2 -Ph 2 -Pb 1 -Pd 5 -Pds 0 -Ps 0 -Pss 4 -Pc REQUEST 
s -t 0.013602152 -Hs 2 -Hd -2 -Ni 2 -Nx 100.00 -Ny 100.00 -Nz 0.00 -Ne -1.000000 -Nl MAC -Nw --- -Ma 0 -Md ffffffff -Ms 2 -Mt 800 -Is 2.255 -Id -1.255 -It AODV -Il 106 -If 0 -Ii 0 -Iv 29 -P aodv -Pt 0x2 -Ph 2 -Pb 1 -Pd 5 -Pds 0 -Ps 0 -Pss 4 -Pc REQUEST 
r -t 0.014450219 -Hs 1 -Hd -2 -Ni 1 -Nx 120.00 -Ny 100.00 -Nz 0.00 -Ne -1.000000 -Nl MAC -Nw --- -Ma 0 -Md ffffffff -Ms 2 -Mt 800 -Is 2.255 -Id -1.255 -It AODV -Il 48 -If 0 -Ii 0 -Iv 29 -P aodv -Pt 0x2 -Ph 2 -Pb 1 -Pd 5 -Pds 0 -Ps 0 -Pss 4 -Pc REQUEST 
r -t 0.014450319 -Hs 3 -Hd -2 -Ni 3 -Nx 150.00 -Ny 100.00 -Nz 0.00 -Ne -1.000000 -Nl MAC -Nw --- -Ma 0 -Md ffffffff -Ms 2 -Mt 800 -Is 2.255 -Id -1.255 -It AODV -Il 48 -If 0 -Ii 0 -Iv 29 -P aodv -Pt 0x2 -Ph 2 -Pb 1 -Pd 5 -Pds 0 -Ps 0 -Pss 4 -Pc REQUEST 
r -t 0.014450419 -Hs 0 -Hd -2 -Ni 0 -Nx 20.00 -Ny 100.00 -Nz 0.00 -Ne -1.000000 -Nl MAC -Nw --- -Ma 0 -Md ffffffff -Ms 2 -Mt 800 -Is 2.255 -Id -1.255 -It AODV -Il 48 -If 0 -Ii 0 -Iv 29 -P aodv -Pt 0x2 -Ph 2 -Pb 1 -Pd 5 -Pds 0 -Ps 0 -Pss 4 -Pc REQUEST 
r -t 0.014450467 -Hs 4 -Hd -2 -Ni 4 -Nx 180.00 -Ny 150.00 -Nz 0.00 -Ne -1.000000 -Nl MAC -Nw --- -Ma 0 -Md ffffffff -Ms 2 -Mt 800 -Is 2.255 -Id -1.255 -It AODV -Il 48 -If 0 -Ii 0 -Iv 29 -P aodv -Pt 0x2 -Ph 2 -Pb 1 -Pd 5 -Pds 0 -Ps 0 -Pss 4 -Pc REQUEST 
r -t 0.014450486 -Hs 5 -Hd -2 -Ni 5 -Nx 200.00 -Ny 100.00 -Nz 0.00 -Ne -1.000000 -Nl MAC -Nw --- -Ma 0 -Md ffffffff -Ms 2 -Mt 800 -Is 2.255 -Id -1.255 -It AODV -Il 48 -If 0 -Ii 0 -Iv 29 -P aodv -Pt 0x2 -Ph 2 -Pb 1 -Pd 5 -Pds 0 -Ps 0 -Pss 4 -Pc REQUEST 
r -t 0.014475219 -Hs 1 -Hd -2 -Ni 1 -Nx 120.00 -Ny 100.00 -Nz 0.00 -Ne -1.000000 -Nl RTR -Nw --- -Ma 0 -Md ffffffff -Ms 2 -Mt 800 -Is 2.255 -Id -1.255 -It AODV -Il 48 -If 0 -Ii 0 -Iv 29 -P aodv -Pt 0x2 -Ph 2 -Pb 1 -Pd 5 -Pds 0 -Ps 0 -Pss 4 -Pc REQUEST 
r -t 0.014475319 -Hs 3 -Hd -2 -Ni 3 -Nx 150.00 -Ny 100.00 -Nz 0.00 -Ne -1.000000 -Nl RTR -Nw --- -Ma 0 -Md ffffffff -Ms 2 -Mt 800 -Is 2.255 -Id -1.255 -It AODV -Il 48 -If 0 -Ii 0 -Iv 29 -P aodv -Pt 0x2 -Ph 2 -Pb 1 -Pd 5 -Pds 0 -Ps 0 -Pss 4 -Pc REQUEST 
r -t 0.014475419 -Hs 0 -Hd -2 -Ni 0 -Nx 20.00 -Ny 100.00 -Nz 0.00 -Ne -1.000000 -Nl RTR -Nw --- -Ma 0 -Md ffffffff -Ms 2 -Mt 800 -Is 2.255 -Id -1.255 -It AODV -Il 48 -If 0 -Ii 0 -Iv 29 -P aodv -Pt 0x2 -Ph 2 -Pb 1 -Pd 5 -Pds 0 -Ps 0 -Pss 4 -Pc REQUEST 
r -t 0.014475467 -Hs 4 -Hd -2 -Ni 4 -Nx 180.00 -Ny 150.00 -Nz 0.00 -Ne -1.000000 -Nl RTR -Nw --- -Ma 0 -Md ffffffff -Ms 2 -Mt 800 -Is 2.255 -Id -1.255 -It AODV -Il 48 -If 0 -Ii 0 -Iv 29 -P aodv -Pt 0x2 -Ph 2 -Pb 1 -Pd 5 -Pds 0 -Ps 0 -Pss 4 -Pc REQUEST 
r -t 0.014475486 -Hs 5 -Hd -2 -Ni 5 -Nx 200.00 -Ny 100.00 -Nz 0.00 -Ne -1.000000 -Nl RTR -Nw --- -Ma 0 -Md ffffffff -Ms 2 -Mt 800 -Is 2.255 -Id -1.255 -It AODV -Il 48 -If 0 -Ii 0 -Iv 29 -P aodv -Pt 0x2 -Ph 2 -Pb 1 -Pd 5 -Pds 0 -Ps 0 -Pss 4 -Pc REQUEST 
s -t 0.014560419 -Hs 0 -Hd -2 -Ni 0 -Nx 20.00 -Ny 100.00 -Nz 0.00 -Ne -1.000000 -Nl MAC -Nw --- -Ma 24ce -Md 5 -Ms 0 -Mt 0 
r -t 0.014913019 -Hs 5 -Hd -2 -Ni 5 -Nx 200.00 -Ny 100.00 -Nz 0.00 -Ne -1.000000 -Nl MAC -Nw --- -Ma 24ce -Md 5 -Ms 0 -Mt 0 
s -t 0.014923019 -Hs 5 -Hd -2 -Ni 5 -Nx 200.00 -Ny 100.00 -Nz 0.00 -Ne -1.000000 -Nl MAC -Nw --- -Ma 2394 -Md 0 -Ms 0 -Mt 0 
r -t 0.015227619 -Hs 0 -Hd -2 -Ni 0 -Nx 20.00 -Ny 100.00 -Nz 0.00 -Ne -1.000000 -Nl MAC -Nw --- -Ma 2394 -Md 0 -Ms 0 -Mt 0 
s -t 0.015237619 -Hs 0 -Hd 5 -Ni 0 -Nx 20.00 -Ny 100.00 -Nz 0.00 -Ne -1.000000 -Nl MAC -Nw --- -Ma 13a -Md 5 -Ms 0 -Mt 800 -Is 0.0 -Id 5.0 -It tcp -Il 1098 -If 0 -Ii 2 -Iv 30 -Pn tcp -Ps 1 -Pa 0 -Pf 0 -Po 0 
r -t 0.024022219 -Hs 5 -Hd 5 -Ni 5 -Nx 200.00 -Ny 100.00 -Nz 0.00 -Ne -1.000000 -Nl MAC -Nw --- -Ma 13a -Md 5 -Ms 0 -Mt 800 -Is 0.0 -Id 5.0 -It tcp -Il 1040 -If 0 -Ii 2 -Iv 30 -Pn tcp -Ps 1 -Pa 0 -Pf 1 -Po 0 
s -t 0.024032219 -Hs 5 -Hd -2 -Ni 5 -Nx 200.00 -Ny 100.00 -Nz 0.00 -Ne -1.000000 -Nl MAC -Nw --- -Ma 0 -Md 0 -Ms 0 -Mt 0 
r -t 0.024047219 -Hs 5 -Hd 5 -Ni 5 -Nx 200.00 -Ny 100.00 -Nz 0.00 -Ne -1.000000 -Nl AGT -Nw --- -Ma 13a -Md 5 -Ms 0 -Mt 800 -Is 0.0 -Id 5.0 -It tcp -Il 1040 -If 0 -Ii 2 -Iv 30 -Pn tcp -Ps 1 -Pa 0 -Pf 1 -Po 0 
s -t 0.024047219 -Hs 5 -Hd -2 -Ni 5 -Nx 200.00 -Ny 100.00 -Nz 0.00 -Ne -1.000000 -Nl AGT -Nw --- -Ma 0 -Md 0 -Ms 0 -Mt 0 -Is 5.0 -Id 0.0 -It ack -Il 40 -If 0 -Ii 4 -Iv 32 -Pn tcp -Ps 1 -Pa 0 -Pf 0 -Po 0 
r -t 0.024047219 -Hs 5 -Hd -2 -Ni 5 -Nx 200.00 -Ny 100.00 -Nz 0.00 -Ne -1.000000 -Nl RTR -Nw --- -Ma 0 -Md 0 -Ms 0 -Mt 0 -Is 5.0 -Id 0.0 -It ack -Il 40 -If 0 -Ii 4 -Iv 32 -Pn tcp -Ps 1 -Pa 0 -Pf 0 -Po 0 
s -t 0.024047219 -Hs 5 -Hd 0 -Ni 5 -Nx 200.00 -Ny 100.00 -Nz 0.00 -Ne -1.000000 -Nl RTR -Nw --- -Ma 0 -Md 0 -Ms 0 -Mt 0 -Is 5.0 -Id 0.0 -It ack -Il 40 -If 0 -Ii 4 -Iv 30 -Pn tcp -Ps 1 -Pa 0 -Pf 0 -Po 0 
r -t 0.024336819 -Hs 0 -Hd -2 -Ni 0 -Nx 20.00 -Ny 100.00 -Nz 0.00 -Ne -1.000000 -Nl MAC -Nw --- -Ma 0 -Md 0 -Ms 0 -Mt 0 
s -t 0.024566219 -Hs 5 -Hd -2 -Ni 5 -Nx 200.00 -Ny 100.00 -Nz 0.00 -Ne -1.000000 -Nl MAC -Nw --- -Ma 58e -Md 0 -Ms 5 -Mt 0 
r -t 0.024918819 -Hs 0 -Hd -2 -Ni 0 -Nx 20.00 -Ny 100.00 -Nz 0.00 -Ne -1.000000 -Nl MAC -Nw --- -Ma 58e -Md 0 -Ms 5 -Mt 0 
s -t 0.024928819 -Hs 0 -Hd -2 -Ni 0 -Nx 20.00 -Ny 100.00 -Nz 0.00 -Ne -1.000000 -Nl MAC -Nw --- -Ma 454 -Md 5 -Ms 0 -Mt 0 
r -t 0.025233419 -Hs 5 -Hd -2 -Ni 5 -Nx 200.00 -Ny 100.00 -Nz 0.00 -Ne -1.000000 -Nl MAC -Nw --- -Ma 454 -Md 5 -Ms 0 -Mt 0 
s -t 0.025243419 -Hs 5 -Hd 0 -Ni 5 -Nx 200.00 -Ny 100.00 -Nz 0.00 -Ne -1.000000 -Nl MAC -Nw --- -Ma 13a -Md 0 -Ms 5 -Mt 800 -Is 5.0 -Id 0.0 -It ack -Il 98 -If 0 -Ii 4 -Iv 30 -Pn tcp -Ps 1 -Pa 0 -Pf 0 -Po 0 
r -t 0.026028019 -Hs 0 -Hd 0 -Ni 0 -Nx 20.00 -Ny 100.00 -Nz 0.00 -Ne -1.000000 -Nl MAC -Nw --- -Ma 13a -Md 0 -Ms 5 -Mt 800 -Is 5.0 -Id 0.0 -It ack -Il 40 -If 0 -Ii 4 -Iv 30 -Pn tcp -Ps 1 -Pa 0 -Pf 1 -Po 0 
s -t 0.026038019 -Hs 0 -Hd -2 -Ni 0 -Nx 20.00 -Ny 100.00 -Nz 0.00 -Ne -1.000000 -Nl MAC -Nw --- -Ma 0 -Md 5 -Ms 0 -Mt 0 
r -t 0.026053019 -Hs 0 -Hd 0 -Ni 0 -Nx 20.00 -Ny 100.00 -Nz 0.00 -Ne -1.000000 -Nl AGT -Nw --- -Ma 13a -Md 0 -Ms 5 -Mt 800 -Is 5.0 -Id 0.0 -It ack -Il 40 -If 0 -Ii 4 -Iv 30 -Pn tcp -Ps 1 -Pa 0 -Pf 1 -Po 0 
s -t 0.026053019 -Hs 0 -Hd -2 -Ni 0 -Nx 20.00 -Ny 100.00 -Nz 0.00 -Ne -1.000000 -Nl AGT -Nw --- -Ma 0 -Md 0 -Ms 0 -Mt 0 -Is 0.0 -Id 5.0 -It tcp -Il 1040 -If 0 -Ii 5 -Iv 32 -Pn tcp -Ps 3 -Pa 0 -Pf 0 -Po 0 
r -t 0.026053019 -Hs 0 -Hd -2 -Ni 0 -Nx 20.00 -Ny 100.00 -Nz 0.00 -Ne -1.000000 -Nl RTR -Nw --- -Ma 0 -Md 0 -Ms 0 -Mt 0 -Is 0.0 -Id 5.0 -It tcp -Il 1040 -If 0 -Ii 5 -Iv 32 -Pn tcp -Ps 3 -Pa 0 -Pf 0 -Po 0 
s -t 0.026053019 -Hs 0 -Hd -2 -Ni 0 -Nx 20.00 -Ny 100.00 -Nz 0.00 -Ne -1.000000 -Nl AGT -Nw --- -Ma 0 -Md 0 -Ms 0 -Mt 0 -Is 0.0 -Id 5.0 -It tcp -Il 1040 -If 0 -Ii 6 -Iv 32 -Pn tcp -Ps 4 -Pa 0 -Pf 0 -Po 0 
r -t 0.026053019 -Hs 0 -Hd -2 -Ni 0 -Nx 20.00 -Ny 100.00 -Nz 0.00 -Ne -1.000000 -Nl RTR -Nw --- -Ma 0 -Md 0 -Ms 0 -Mt 0 -Is 0.0 -Id 5.0 -It tcp -Il 1040 -If 0 -Ii 6 -Iv 32 -Pn tcp -Ps 4 -Pa 0 -Pf 0 -Po 0 
s -t 0.026053019 -Hs 0 -Hd 5 -Ni 0 -Nx 20.00 -Ny 100.00 -Nz 0.00 -Ne -1.000000 -Nl RTR -Nw --- -Ma 0 -Md 0 -Ms 0 -Mt 0 -Is 0.0 -Id 5.0 -It tcp -Il 1040 -If 0 -Ii 5 -Iv 30 -Pn tcp -Ps 3 -Pa 0 -Pf 0 -Po 0 
s -t 0.026053019 -Hs 0 -Hd 5 -Ni 0 -Nx 20.00 -Ny 100.00 -Nz 0.00 -Ne -1.000000 -Nl RTR -Nw --- -Ma 0 -Md 0 -Ms 0 -Mt 0 -Is 0.0 -Id 5.0 -It tcp -Il 1040 -If 0 -Ii 6 -Iv 30 -Pn tcp -Ps 4 -Pa 0 -Pf 0 -Po 0 
r -t 0.026342619 -Hs 5 -Hd -2 -Ni 5 -Nx 200.00 -Ny 100.00 -Nz 0.00 -Ne -1.000000 -Nl MAC -Nw --- -Ma 0 -Md 5 -Ms 0 -Mt 0 
s -t 0.026812019 -Hs 0 -Hd -2 -Ni 0 -Nx 20.00 -Ny 100.00 -Nz 0.00 -Ne -1.000000 -Nl MAC -Nw --- -Ma 24ce -Md 5 -Ms 0 -Mt 0 
r -t 0.027164619 -Hs 5 -Hd -2 -Ni 5 -Nx 200.00 -Ny 100.00 -Nz 0.00 -Ne -1.000000 -Nl MAC -Nw --- -Ma 24ce -Md 5 -Ms 0 -Mt 0 
s -t 0.027174619 -Hs 5 -Hd -2 -Ni 5 -Nx 200.00 -Ny 100.00 -Nz 0.00 -Ne -1.000000 -Nl MAC -Nw --- -Ma 2394 -Md 0 -Ms 0 -Mt 0 
r -t 0.027479219 -Hs 0 -Hd -2 -Ni 0 -Nx 20.00 -Ny 100.00 -Nz 0.00 -Ne -1.000000 -Nl MAC -Nw --- -Ma 2394 -Md 0 -Ms 0 -Mt 0 
s -t 0.027489219 -Hs 0 -Hd 5 -Ni 0 -Nx 20.00 -Ny 100.00 -Nz 0.00 -Ne -1.000000 -Nl MAC -Nw --- -Ma 13a -Md 5 -Ms 0 -Mt 800 -Is 0.0 -Id 5.0 -It tcp -Il 1098 -If 0 -Ii 3 -Iv 30 -Pn tcp -Ps 2 -Pa 0 -Pf 0 -Po 0 
r -t 0.036273819 -Hs 5 -Hd 5 -Ni 5 -Nx 200.00 -Ny 100.00 -Nz 0.00 -Ne -1.000000 -Nl MAC -Nw --- -Ma 13a -Md 5 -Ms 0 -Mt 800 -Is 0.0 -Id 5.0 -It tcp -Il 1040 -If 0 -Ii 3 -Iv 30 -Pn tcp -Ps 2 -Pa 0 -Pf 1 -Po 0 