V -t * -v 1.0a5 -a 0
W -t * -x 250 -y 250
A -t * -n 1 -p 0 -o 0x7fffffff -c 30 -a 1
A -t * -h 1 -m 1073741823 -s 0
n -t 0.000000 -s 0 -x 20.000000 -y 100.000000 -U 0.000000 -V 0.000000 -T 0.000000
n -t 0.000000 -s 1 -x 120.000000 -y 100.000000 -U 0.000000 -V 0.000000 -T 0.000000
n -t 0.000000 -s 2 -x 100.000000 -y 100.000000 -U 0.000000 -V 0.000000 -T 0.000000
n -t 0.000000 -s 3 -x 150.000000 -y 100.000000 -U 0.000000 -V 0.000000 -T 0.000000
n -t 0.000000 -s 4 -x 180.000000 -y 150.000000 -U 0.000000 -V 0.000000 -T 0.000000
n -t 0.000000 -s 5 -x 200.000000 -y 100.000000 -U 0.000000 -V 0.000000 -T 0.000000
+ -t 0.000000000 -s 0 -d -1 -p tcp -e 40 -c 2 -a 0 -i 0 -k AGT 
- -t 0.000000000 -s 0 -d -1 -p tcp -e 40 -c 2 -a 0 -i 0 -k AGT
h -t 0.000000000 -s 0 -d -1 -p tcp -e 40 -c 2 -a 0 -i 0 -k AGT
+ -t 0.000000000 -s 0 -d -1 -p AODV -e 48 -c 2 -a 0 -i 0 -k RTR 
- -t 0.000000000 -s 0 -d -1 -p AODV -e 48 -c 2 -a 0 -i 0 -k RTR
h -t 0.000000000 -s 0 -d -1 -p AODV -e 48 -c 2 -a 0 -i 0 -k RTR
+ -t 0.000375000 -s 0 -d -1 -p AODV -e 106 -c 2 -a 0 -i 0 -k MAC 
- -t 0.000375000 -s 0 -d -1 -p AODV -e 106 -c 2 -a 0 -i 0 -k MAC
h -t 0.000375000 -s 0 -d -1 -p AODV -e 106 -c 2 -a 0 -i 0 -k MAC
r -t 0.001223267 -s 2 -d -1 -p AODV -e 48 -c 2 -a 0 -i 0 -k MAC
r -t 0.001223333 -s 1 -d -1 -p AODV -e 48 -c 2 -a 0 -i 0 -k MAC
r -t 0.001223433 -s 3 -d -1 -p AODV -e 48 -c 2 -a 0 -i 0 -k MAC
r -t 0.001223559 -s 4 -d -1 -p AODV -e 48 -c 2 -a 0 -i 0 -k MAC
r -t 0.001223600 -s 5 -d -1 -p AODV -e 48 -c 2 -a 0 -i 0 -k MAC
r -t 0.001248267 -s 2 -d -1 -p AODV -e 48 -c 2 -a 0 -i 0 -k RTR
r -t 0.001248333 -s 1 -d -1 -p AODV -e 48 -c 2 -a 0 -i 0 -k RTR
r -t 0.001248433 -s 3 -d -1 -p AODV -e 48 -c 2 -a 0 -i 0 -k RTR
r -t 0.001248559 -s 4 -d -1 -p AODV -e 48 -c 2 -a 0 -i 0 -k RTR
r -t 0.001248600 -s 5 -d -1 -p AODV -e 48 -c 2 -a 0 -i 0 -k RTR
+ -t 0.001248600 -s 5 -d 0 -p AODV -e 44 -c 2 -a 0 -i 0 -k RTR 
- -t 0.001248600 -s 5 -d 0 -p AODV -e 44 -c 2 -a 0 -i 0 -k RTR
h -t 0.001248600 -s 5 -d 0 -p AODV -e 44 -c 2 -a 0 -i 0 -k RTR
+ -t 0.001663600 -s 5 -d -1 -p ARP -e 86 -c 2 -a 0 -i 0 -k MAC 
- -t 0.001663600 -s 5 -d -1 -p ARP -e 86 -c 2 -a 0 -i 0 -k MAC
h -t 0.001663600 -s 5 -d -1 -p ARP -e 86 -c 2 -a 0 -i 0 -k MAC
r -t 0.002351767 -s 3 -d -1 -p ARP -e 28 -c 2 -a 0 -i 0 -k MAC
r -t 0.002351780 -s 4 -d -1 -p ARP -e 28 -c 2 -a 0 -i 0 -k MAC
r -t 0.002351867 -s 1 -d -1 -p ARP -e 28 -c 2 -a 0 -i 0 -k MAC
r -t 0.002351933 -s 2 -d -1 -p ARP -e 28 -c 2 -a 0 -i 0 -k MAC
r -t 0.002352200 -s 0 -d -1 -p ARP -e 28 -c 2 -a 0 -i 0 -k MAC
+ -t 0.002647200 -s 0 -d -1 -p RTS -e 44 -c 2 -a 0 -i 0 -k MAC 
- -t 0.002647200 -s 0 -d -1 -p RTS -e 44 -c 2 -a 0 -i 0 -k MAC
h -t 0.002647200 -s 0 -d -1 -p RTS -e 44 -c 2 -a 0 -i 0 -k MAC
r -t 0.002999800 -s 5 -d -1 -p RTS -e 44 -c 2 -a 0 -i 0 -k MAC
+ -t 0.003009800 -s 5 -d -1 -p CTS -e 38 -c 2 -a 0 -i 0 -k MAC 
- -t 0.003009800 -s 5 -d -1 -p CTS -e 38 -c 2 -a 0 -i 0 -k MAC
h -t 0.003009800 -s 5 -d -1 -p CTS -e 38 -c 2 -a 0 -i 0 -k MAC
r -t 0.003314400 -s 0 -d -1 -p CTS -e 38 -c 2 -a 0 -i 0 -k MAC
+ -t 0.003324400 -s 0 -d -1 -p ARP -e 86 -c 2 -a 0 -i 0 -k MAC 
- -t 0.003324400 -s 0 -d -1 -p ARP -e 86 -c 2 -a 0 -i 0 -k MAC
h -t 0.003324400 -s 0 -d -1 -p ARP -e 86 -c 2 -a 0 -i 0 -k MAC
+ -t 0.003594576 -s 4 -d -1 -p AODV -e 48 -c 2 -a 0 -i 0 -k RTR 
- -t 0.003594576 -s 4 -d -1 -p AODV -e 48 -c 2 -a 0 -i 0 -k RTR
h -t 0.003594576 -s 4 -d -1 -p AODV -e 48 -c 2 -a 0 -i 0 -k RTR
r -t 0.004013000 -s 5 -d -1 -p ARP -e 28 -c 2 -a 0 -i 0 -k MAC
+ -t 0.004023000 -s 5 -d -1 -p ACK -e 38 -c 2 -a 0 -i 0 -k MAC 
- -t 0.004023000 -s 5 -d -1 -p ACK -e 38 -c 2 -a 0 -i 0 -k MAC
h -t 0.004023000 -s 5 -d -1 -p ACK -e 38 -c 2 -a 0 -i 0 -k MAC
r -t 0.004327600 -s 0 -d -1 -p ACK -e 38 -c 2 -a 0 -i 0 -k MAC
+ -t 0.004377951 -s 1 -d -1 -p AODV -e 48 -c 2 -a 0 -i 0 -k RTR 
- -t 0.004377951 -s 1 -d -1 -p AODV -e 48 -c 2 -a 0 -i 0 -k RTR
h -t 0.004377951 -s 1 -d -1 -p AODV -e 48 -c 2 -a 0 -i 0 -k RTR
+ -t 0.004397000 -s 5 -d -1 -p RTS -e 44 -c 2 -a 0 -i 0 -k MAC 
- -t 0.004397000 -s 5 -d -1 -p RTS -e 44 -c 2 -a 0 -i 0 -k MAC
h -t 0.004397000 -s 5 -d -1 -p RTS -e 44 -c 2 -a 0 -i 0 -k MAC
r -t 0.004749600 -s 0 -d -1 -p RTS -e 44 -c 2 -a 0 -i 0 -k MAC
+ -t 0.004759600 -s 0 -d -1 -p CTS -e 38 -c 2 -a 0 -i 0 -k MAC 
- -t 0.004759600 -s 0 -d -1 -p CTS -e 38 -c 2 -a 0 -i 0 -k MAC
h -t 0.004759600 -s 0 -d -1 -p CTS -e 38 -c 2 -a 0 -i 0 -k MAC
r -t 0.005064200 -s 5 -d -1 -p CTS -e 38 -c 2 -a 0 -i 0 -k MAC
+ -t 0.005074200 -s 5 -d 0 -p AODV -e 102 -c 2 -a 0 -i 0 -k MAC 
- -t 0.005074200 -s 5 -d 0 -p AODV -e 102 -c 2 -a 0 -i 0 -k MAC
h -t 0.005074200 -s 5 -d 0 -p AODV -e 102 -c 2 -a 0 -i 0 -k MAC
r -t 0.005890800 -s 0 -d 0 -p AODV -e 44 -c 2 -a 0 -i 0 -k MAC
+ -t 0.005900800 -s 0 -d -1 -p ACK -e 38 -c 2 -a 0 -i 0 -k MAC 
- -t 0.005900800 -s 0 -d -1 -p ACK -e 38 -c 2 -a 0 -i 0 -k MAC
h -t 0.005900800 -s 0 -d -1 -p ACK -e 38 -c 2 -a 0 -i 0 -k MAC
+ -t 0.005915800 -s 0 -d 5 -p tcp -e 40 -c 2 -a 0 -i 0 -k RTR 
- -t 0.005915800 -s 0 -d 5 -p tcp -e 40 -c 2 -a 0 -i 0 -k RTR
h -t 0.005915800 -s 0 -d 5 -p tcp -e 40 -c 2 -a 0 -i 0 -k RTR
r -t 0.006205400 -s 5 -d -1 -p ACK -e 38 -c 2 -a 0 -i 0 -k MAC
+ -t 0.006275359 -s 4 -d -1 -p AODV -e 106 -c 2 -a 0 -i 0 -k MAC 
- -t 0.006275359 -s 4 -d -1 -p AODV -e 106 -c 2 -a 0 -i 0 -k MAC
h -t 0.006275359 -s 4 -d -1 -p AODV -e 106 -c 2 -a 0 -i 0 -k MAC
r -t 0.007123538 -s 5 -d -1 -p AODV -e 48 -c 2 -a 0 -i 0 -k MAC
r -t 0.007123553 -s 3 -d -1 -p AODV -e 48 -c 2 -a 0 -i 0 -k MAC
r -t 0.007123619 -s 1 -d -1 -p AODV -e 48 -c 2 -a 0 -i 0 -k MAC
r -t 0.007123673 -s 2 -d -1 -p AODV -e 48 -c 2 -a 0 -i 0 -k MAC
r -t 0.007123918 -s 0 -d -1 -p AODV -e 48 -c 2 -a 0 -i 0 -k MAC
r -t 0.007148538 -s 5 -d -1 -p AODV -e 48 -c 2 -a 0 -i 0 -k RTR
r -t 0.007148553 -s 3 -d -1 -p AODV -e 48 -c 2 -a 0 -i 0 -k RTR
r -t 0.007148619 -s 1 -d -1 -p AODV -e 48 -c 2 -a 0 -i 0 -k RTR
r -t 0.007148673 -s 2 -d -1 -p AODV -e 48 -c 2 -a 0 -i 0 -k RTR
r -t 0.007148918 -s 0 -d -1 -p AODV -e 48 -c 2 -a 0 -i 0 -k RTR
+ -t 0.007313619 -s 1 -d -1 -p AODV -e 106 -c 2 -a 0 -i 0 -k MAC 
- -t 0.007313619 -s 1 -d -1 -p AODV -e 106 -c 2 -a 0 -i 0 -k MAC
h -t 0.007313619 -s 1 -d -1 -p AODV -e 106 -c 2 -a 0 -i 0 -k MAC
r -t 0.008161686 -s 2 -d -1 -p AODV -e 48 -c 2 -a 0 -i 0 -k MAC
r -t 0.008161719 -s 3 -d -1 -p AODV -e 48 -c 2 -a 0 -i 0 -k MAC
r -t 0.008161879 -s 4 -d -1 -p AODV -e 48 -c 2 -a 0 -i 0 -k MAC
r -t 0.008161886 -s 5 -d -1 -p AODV -e 48 -c 2 -a 0 -i 0 -k MAC
r -t 0.008161952 -s 0 -d -1 -p AODV -e 48 -c 2 -a 0 -i 0 -k MAC
r -t 0.008186686 -s 2 -d -1 -p AODV -e 48 -c 2 -a 0 -i 0 -k RTR
r -t 0.008186719 -s 3 -d -1 -p AODV -e 48 -c 2 -a 0 -i 0 -k RTR
r -t 0.008186879 -s 4 -d -1 -p AODV -e 48 -c 2 -a 0 -i 0 -k RTR
r -t 0.008186886 -s 5 -d -1 -p AODV -e 48 -c 2 -a 0 -i 0 -k RTR
r -t 0.008186952 -s 0 -d -1 -p AODV -e 48 -c 2 -a 0 -i 0 -k RTR
+ -t 0.008571952 -s 0 -d -1 -p RTS -e 44 -c 2 -a 0 -i 0 -k MAC 
- -t 0.008571952 -s 0 -d -1 -p RTS -e 44 -c 2 -a 0 -i 0 -k MAC
h -t 0.008571952 -s 0 -d -1 -p RTS -e 44 -c 2 -a 0 -i 0 -k MAC
r -t 0.008924552 -s 5 -d -1 -p RTS -e 44 -c 2 -a 0 -i 0 -k MAC
+ -t 0.008934552 -s 5 -d -1 -p CTS -e 38 -c 2 -a 0 -i 0 -k MAC 
- -t 0.008934552 -s 5 -d -1 -p CTS -e 38 -c 2 -a 0 -i 0 -k MAC
h -t 0.008934552 -s 5 -d -1 -p CTS -e 38 -c 2 -a 0 -i 0 -k MAC
r -t 0.009239152 -s 0 -d -1 -p CTS -e 38 -c 2 -a 0 -i 0 -k MAC
+ -t 0.009239821 -s 2 -d -1 -p AODV -e 48 -c 2 -a 0 -i 0 -k RTR 
- -t 0.009239821 -s 2 -d -1 -p AODV -e 48 -c 2 -a 0 -i 0 -k RTR
h -t 0.009239821 -s 2 -d -1 -p AODV -e 48 -c 2 -a 0 -i 0 -k RTR
+ -t 0.009249152 -s 0 -d 5 -p tcp -e 98 -c 2 -a 0 -i 0 -k MAC 
- -t 0.009249152 -s 0 -d 5 -p tcp -e 98 -c 2 -a 0 -i 0 -k MAC
h -t 0.009249152 -s 0 -d 5 -p tcp -e 98 -c 2 -a 0 -i 0 -k MAC
+ -t 0.009413194 -s 3 -d -1 -p AODV -e 48 -c 2 -a 0 -i 0 -k RTR 
- -t 0.009413194 -s 3 -d -1 -p AODV -e 48 -c 2 -a 0 -i 0 -k RTR
h -t 0.009413194 -s 3 -d -1 -p AODV -e 48 -c 2 -a 0 -i 0 -k RTR
r -t 0.010033752 -s 5 -d 5 -p tcp -e 40 -c 2 -a 0 -i 0 -k MAC
+ -t 0.010043752 -s 5 -d -1 -p ACK -e 38 -c 2 -a 0 -i 0 -k MAC 
- -t 0.010043752 -s 5 -d -1 -p ACK -e 38 -c 2 -a 0 -i 0 -k MAC
h -t 0.010043752 -s 5 -d -1 -p ACK -e 38 -c 2 -a 0 -i 0 -k MAC
r -t 0.010058752 -s 5 -d 5 -p tcp -e 40 -c 2 -a 0 -i 0 -k AGT
+ -t 0.010058752 -s 5 -d -1 -p ack -e 40 -c 2 -a 0 -i 1 -k AGT 
- -t 0.010058752 -s 5 -d -1 -p ack -e 40 -c 2 -a 0 -i 1 -k AGT
h -t 0.010058752 -s 5 -d -1 -p ack -e 40 -c 2 -a 0 -i 1 -k AGT
+ -t 0.010058752 -s 5 -d 0 -p ack -e 40 -c 2 -a 0 -i 1 -k RTR 
- -t 0.010058752 -s 5 -d 0 -p ack -e 40 -c 2 -a 0 -i 1 -k RTR
h -t 0.010058752 -s 5 -d 0 -p ack -e 40 -c 2 -a 0 -i 1 -k RTR
r -t 0.010348352 -s 0 -d -1 -p ACK -e 38 -c 2 -a 0 -i 0 -k MAC
+ -t 0.010717752 -s 5 -d -1 -p RTS -e 44 -c 2 -a 0 -i 0 -k MAC 
- -t 0.010717752 -s 5 -d -1 -p RTS -e 44 -c 2 -a 0 -i 0 -k MAC
h -t 0.010717752 -s 5 -d -1 -p RTS -e 44 -c 2 -a 0 -i 0 -k MAC
r -t 0.011070352 -s 0 -d -1 -p RTS -e 44 -c 2 -a 0 -i 0 -k MAC
+ -t 0.011080352 -s 0 -d -1 -p CTS -e 38 -c 2 -a 0 -i 0 -k MAC 
- -t 0.011080352 -s 0 -d -1 -p CTS -e 38 -c 2 -a 0 -i 0 -k MAC
h -t 0.011080352 -s 0 -d -1 -p CTS -e 38 -c 2 -a 0 -i 0 -k MAC
r -t 0.011384952 -s 5 -d -1 -p CTS -e 38 -c 2 -a 0 -i 0 -k MAC
+ -t 0.011394952 -s 5 -d 0 -p ack -e 98 -c 2 -a 0 -i 1 -k MAC 
- -t 0.011394952 -s 5 -d 0 -p ack -e 98 -c 2 -a 0 -i 1 -k MAC
h -t 0.011394952 -s 5 -d 0 -p ack -e 98 -c 2 -a 0 -i 1 -k MAC
r -t 0.012179552 -s 0 -d 0 -p ack -e 40 -c 2 -a 0 -i 1 -k MAC
+ -t 0.012189552 -s 0 -d -1 -p ACK -e 38 -c 2 -a 0 -i 0 -k MAC 
- -t 0.012189552 -s 0 -d -1 -p ACK -e 38 -c 2 -a 0 -i 0 -k MAC
h -t 0.012189552 -s 0 -d -1 -p ACK -e 38 -c 2 -a 0 -i 0 -k MAC
r -t 0.012204552 -s 0 -d 0 -p ack -e 40 -c 2 -a 0 -i 1 -k AGT
+ -t 0.012204552 -s 0 -d -1 -p tcp -e 1040 -c 2 -a 0 -i 2 -k AGT 
- -t 0.012204552 -s 0 -d -1 -p tcp -e 1040 -c 2 -a 0 -i 2 -k AGT
h -t 0.012204552 -s 0 -d -1 -p tcp -e 1040 -c 2 -a 0 -i 2 -k AGT
+ -t 0.012204552 -s 0 -d -1 -p tcp -e 1040 -c 2 -a 0 -i 3 -k AGT 
- -t 0.012204552 -s 0 -d -1 -p tcp -e 1040 -c 2 -a 0 -i 3 -k AGT
h -t 0.012204552 -s 0 -d -1 -p tcp -e 1040 -c 2 -a 0 -i 3 -k AGT
+ -t 0.012204552 -s 0 -d 5 -p tcp -e 1040 -c 2 -a 0 -i 2 -k RTR 
- -t 0.012204552 -s 0 -d 5 -p tcp -e 1040 -c 2 -a 0 -i 2 -k RTR
h -t 0.012204552 -s 0 -d 5 -p tcp -e 1040 -c 2 -a 0 -i 2 -k RTR
+ -t 0.012204552 -s 0 -d 5 -p tcp -e 1040 -c 2 -a 0 -i 3 -k RTR 
- -t 0.012204552 -s 0 -d 5 -p tcp -e 1040 -c 2 -a 0 -i 3 -k RTR
h -t 0.012204552 -s 0 -d 5 -p tcp -e 1040 -c 2 -a 0 -i 3 -k RTR
r -t 0.012494152 -s 5 -d -1 -p ACK -e 38 -c 2 -a 0 -i 0 -k MAC
+ -t 0.012563986 -s 3 -d -1 -p AODV -e 106 -c 2 -a 0 -i 0 -k MAC 
- -t 0.012563986 -s 3 -d -1 -p AODV -e 106 -c 2 -a 0 -i 0 -k MAC
h -t 0.012563986 -s 3 -d -1 -p AODV -e 106 -c 2 -a 0 -i 0 -k MAC
r -t 0.013412086 -s 1 -d -1 -p AODV -e 48 -c 2 -a 0 -i 0 -k MAC
r -t 0.013412152 -s 2 -d -1 -p AODV -e 48 -c 2 -a 0 -i 0 -k MAC
r -t 0.013412152 -s 5 -d -1 -p AODV -e 48 -c 2 -a 0 -i 0 -k MAC
r -t 0.013412180 -s 4 -d -1 -p AODV -e 48 -c 2 -a 0 -i 0 -k MAC
r -t 0.013412419 -s 0 -d -1 -p AODV -e 48 -c 2 -a 0 -i 0 -k MAC
r -t 0.013437086 -s 1 -d -1 -p AODV -e 48 -c 2 -a 0 -i 0 -k RTR
r -t 0.013437152 -s 2 -d -1 -p AODV -e 48 -c 2 -a 0 -i 0 -k RTR
r -t 0.013437152 -s 5 -d -1 -p AODV -e 48 -c 2 -a 0 -i 0 -k RTR
r -t 0.013437180 -s 4 -d -1 -p AODV -e 48 -c 2 -a 0 -i 0 -k RTR
r -t 0.013437419 -s 0 -d -1 -p AODV -e 48 -c 2 -a 0 -i 0 -k RTR
+ -t 0.013602152 -s 2 -d -1 -p AODV -e 106 -c 2 -a 0 -i 0 -k MAC 
- -t 0.013602152 -s 2 -d -1 -p AODV -e 106 -c 2 -a 0 -i 0 -k MAC
h -t 0.013602152 -s 2 -d -1 -p AODV -e 106 -c 2 -a 0 -i 0 -k MAC
r -t 0.014450219 -s 1 -d -1 -p AODV -e 48 -c 2 -a 0 -i 0 -k MAC
r -t 0.014450319 -s 3 -d -1 -p AODV -e 48 -c 2 -a 0 -i 0 -k MAC
r -t 0.014450419 -s 0 -d -1 -p AODV -e 48 -c 2 -a 0 -i 0 -k MAC
r -t 0.014450467 -s 4 -d -1 -p AODV -e 48 -c 2 -a 0 -i 0 -k MAC
r -t 0.014450486 -s 5 -d -1 -p AODV -e 48 -c 2 -a 0 -i 0 -k MAC
r -t 0.014475219 -s 1 -d -1 -p AODV -e 48 -c 2 -a 0 -i 0 -k RTR
r -t 0.014475319 -s 3 -d -1 -p AODV -e 48 -c 2 -a 0 -i 0 -k RTR
r -t 0.014475419 -s 0 -d -1 -p AODV -e 48 -c 2 -a 0 -i 0 -k RTR
r -t 0.014475467 -s 4 -d -1 -p AODV -e 48 -c 2 -a 0 -i 0 -k RTR
r -t 0.014475486 -s 5 -d -1 -p AODV -e 48 -c 2 -a 0 -i 0 -k RTR
+ -t 0.014560419 -s 0 -d -1 -p RTS -e 44 -c 2 -a 0 -i 0 -k MAC 
- -t 0.014560419 -s 0 -d -1 -p RTS -e 44 -c 2 -a 0 -i 0 -k MAC
h -t 0.014560419 -s 0 -d -1 -p RTS -e 44 -c 2 -a 0 -i 0 -k MAC
r -t 0.014913019 -s 5 -d -1 -p RTS -e 44 -c 2 -a 0 -i 0 -k MAC
+ -t 0.014923019 -s 5 -d -1 -p CTS -e 38 -c 2 -a 0 -i 0 -k MAC 
- -t 0.014923019 -s 5 -d -1 -p CTS -e 38 -c 2 -a 0 -i 0 -k MAC
h -t 0.014923019 -s 5 -d -1 -p CTS -e 38 -c 2 -a 0 -i 0 -k MAC
r -t 0.015227619 -s 0 -d -1 -p CTS -e 38 -c 2 -a 0 -i 0 -k MAC
+ -t 0.015237619 -s 0 -d 5 -p tcp -e 1098 -c 2 -a 0 -i 2 -k MAC 
- -t 0.015237619 -s 0 -d 5 -p tcp -e 1098 -c 2 -a 0 -i 2 -k MAC
h -t 0.015237619 -s 0 -d 5 -p tcp -e 1098 -c 2 -a 0 -i 2 -k MAC
r -t 0.024022219 -s 5 -d 5 -p tcp -e 1040 -c 2 -a 0 -i 2 -k MAC
+ -t 0.024032219 -s 5 -d -1 -p ACK -e 38 -c 2 -a 0 -i 0 -k MAC 
- -t 0.024032219 -s 5 -d -1 -p ACK -e 38 -c 2 -a 0 -i 0 -k MAC
h -t 0.024032219 -s 5 -d -1 -p ACK -e 38 -c 2 -a 0 -i 0 -k MAC
r -t 0.024047219 -s 5 -d 5 -p tcp -e 1040 -c 2 -a 0 -i 2 -k AGT
+ -t 0.024047219 -s 5 -d -1 -p ack -e 40 -c 2 -a 0 -i 4 -k AGT 
- -t 0.024047219 -s 5 -d -1 -p ack -e 40 -c 2 -a 0 -i 4 -k AGT
h -t 0.024047219 -s 5 -d -1 -p ack -e 40 -c 2 -a 0 -i 4 -k AGT
+ -t 0.024047219 -s 5 -d 0 -p ack -e 40 -c 2 -a 0 -i 4 -k RTR 
- -t 0.024047219 -s 5 -d 0 -p ack -e 40 -c 2 -a 0 -i 4 -k RTR
h -t 0.024047219 -s 5 -d 0 -p ack -e 40 -c 2 -a 0 -i 4 -k RTR
r -t 0.024336819 -s 0 -d -1 -p ACK -e 38 -c 2 -a 0 -i 0 -k MAC
+ -t 0.024566219 -s 5 -d -1 -p RTS -e 44 -c 2 -a 0 -i 0 -k MAC 
- -t 0.024566219 -s 5 -d -1 -p RTS -e 44 -c 2 -a 0 -i 0 -k MAC
h -t 0.024566219 -s 5 -d -1 -p RTS -e 44 -c 2 -a 0 -i 0 -k MAC
r -t 0.024918819 -s 0 -d -1 -p RTS -e 44 -c 2 -a 0 -i 0 -k MAC
+ -t 0.024928819 -s 0 -d -1 -p CTS -e 38 -c 2 -a 0 -i 0 -k MAC 
- -t 0.024928819 -s 0 -d -1 -p CTS -e 38 -c 2 -a 0 -i 0 -k MAC
h -t 0.024928819 -s 0 -d -1 -p CTS -e 38 -c 2 -a 0 -i 0 -k MAC
r -t 0.025233419 -s 5 -d -1 -p CTS -e 38 -c 2 -a 0 -i 0 -k MAC
+ -t 0.025243419 -s 5 -d 0 -p ack -e 98 -c 2 -a 0 -i 4 -k MAC 
- -t 0.025243419 -s 5 -d 0 -p ack -e 98 -c 2 -a 0 -i 4 -k MAC
h -t 0.025243419 -s 5 -d 0 -p ack -e 98 -c 2 -a 0 -i 4 -k MAC
r -t 0.026028019 -s 0 -d 0 -p ack -e 40 -c 2 -a 0 -i 4 -k MAC
+ -t 0.026038019 -s 0 -d -1 -p ACK -e 38 -c 2 -a 0 -i 0 -k MAC 
- -t 0.026038019 -s 0 -d -1 -p ACK -e 38 -c 2 -a 0 -i 0 -k MAC
h -t 0.026038019 -s 0 -d -1 -p ACK -e 38 -c 2 -a 0 -i 0 -k MAC
r -t 0.026053019 -s 0 -d 0 -p ack -e 40 -c 2 -a 0 -i 4 -k AGT
+ -t 0.026053019 -s 0 -d -1 -p tcp -e 1040 -c 2 -a 0 -i 5 -k AGT 
- -t 0.026053019 -s 0 -d -1 -p tcp -e 1040 -c 2 -a 0 -i 5 -k AGT
h -t 0.026053019 -s 0 -d -1 -p tcp -e 1040 -c 2 -a 0 -i 5 -k AGT
+ -t 0.026053019 -s 0 -d -1 -p tcp -e 1040 -c 2 -a 0 -i 6 -k AGT 
- -t 0.026053019 -s 0 -d -1 -p tcp -e 1040 -c 2 -a 0 -i 6 -k AGT
h -t 0.026053019 -s 0 -d -1 -p tcp -e 1040 -c 2 -a 0 -i 6 -k AGT
+ -t 0.026053019 -s 0 -d 5 -p tcp -e 1040 -c 2 -a 0 -i 5 -k RTR 
- -t 0.026053019 -s 0 -d 5 -p tcp -e 1040 -c 2 -a 0 -i 5 -k RTR
h -t 0.026053019 -s 0 -d 5 -p tcp -e 1040 -c 2 -a 0 -i 5 -k RTR
+ -t 0.026053019 -s 0 -d 5 -p tcp -e 1040 -c 2 -a 0 -i 6 -k RTR 
- -t 0.026053019 -s 0 -d 5 -p tcp -e 1040 -c 2 -a 0 -i 6 -k RTR
h -t 0.026053019 -s 0 -d 5 -p tcp -e 1040 -c 2 -a 0 -i 6 -k RTR
r -t 0.026342619 -s 5 -d -1 -p ACK -e 38 -c 2 -a 0 -i 0 -k MAC
+ -t 0.026812019 -s 0 -d -1 -p RTS -e 44 -c 2 -a 0 -i 0 -k MAC 
- -t 0.026812019 -s 0 -d -1 -p RTS -e 44 -c 2 -a 0 -i 0 -k MAC
h -t 0.026812019 -s 0 -d -1 -p RTS -e 44 -c 2 -a 0 -i 0 -k MAC
r -t 0.027164619 -s 5 -d -1 -p RTS -e 44 -c 2 -a 0 -i 0 -k MAC
+ -t 0.027174619 -s 5 -d -1 -p CTS -e 38 -c 2 -a 0 -i 0 -k MAC 
- -t 0.027174619 -s 5 -d -1 -p CTS -e 38 -c 2 -a 0 -i 0 -k MAC
h -t 0.027174619 -s 5 -d -1 -p CTS -e 38 -c 2 -a 0 -i 0 -k MAC
r -t 0.027479219 -s 0 -d -1 -p CTS -e 38 -c 2 -a 0 -i 0 -k MAC
+ -t 0.027489219 -s 0 -d 5 -p tcp -e 1098 -c 2 -a 0 -i 3 -k MAC 
- -t 0.027489219 -s 0 -d 5 -p tcp -e 1098 -c 2 -a 0 -i 3 -k MAC
h -t 0.027489219 -s 0 -d 5 -p tcp -e 1098 -c 2 -a 0 -i 3 -k MAC
r -t 0.036273819 -s 5 -d 5 -p tcp -e 1040 -c 2 -a 0 -i 3 -k MAC
+ -t 0.036283819 -s 5 -d -1 -p ACK -e 38 -c 2 -a 0 -i 0 -k MAC 
- -t 0.036283819 -s 5 -d -1 -p ACK -e 38 -c 2 -a 0 -i 0 -k MAC
h -t 0.036283819 -s 5 -d -1 -p ACK -e 38 -c 2 -a 0 -i 0 -k MAC
r -t 0.036298819 -s 5 -d 5 -p tcp -e 1040 -c 2 -a 0 -i 3 -k AGT
+ -t 0.036298819 -s 5 -d -1 -p ack -e 40 -c 2 -a 0 -i 7 -k AGT 
- -t 0.036298819 -s 5 -d -1 -p ack -e 40 -c 2 -a 0 -i 7 -k AGT
h -t 0.036298819 -s 5 -d -1 -p ack -e 40 -c 2 -a 0 -i 7 -k AGT
+ -t 0.036298819 -s 5 -d 0 -p ack -e 40 -c 2 -a 0 -i 7 -k RTR 
- -t 0.036298819 -s 5 -d 0 -p ack -e 40 -c 2 -a 0 -i 7 -k RTR
h -t 0.036298819 -s 5 -d 0 -p ack -e 40 -c 2 -a 0 -i 7 -k RTR
r -t 0.036588419 -s 0 -d -1 -p ACK -e 38 -c 2 -a 0 -i 0 -k MAC
+ -t 0.036998419 -s 0 -d -1 -p RTS -e 44 -c 2 -a 0 -i 0 -k MAC 
- -t 0.036998419 -s 0 -d -1 -p RTS -e 44 -c 2 -a 0 -i 0 -k MAC
h -t 0.036998419 -s 0 -d -1 -p RTS -e 44 -c 2 -a 0 -i 0 -k MAC
r -t 0.037351019 -s 5 -d -1 -p RTS -e 44 -c 2 -a 0 -i 0 -k MAC
+ -t 0.037361019 -s 5 -d -1 -p CTS -e 38 -c 2 -a 0 -i 0 -k MAC 
- -t 0.037361019 -s 5 -d -1 -p CTS -e 38 -c 2 -a 0 -i 0 -k MAC
h -t 0.037361019 -s 5 -d -1 -p CTS -e 38 -c 2 -a 0 -i 0 -k MAC
r -t 0.037665619 -s 0 -d -1 -p CTS -e 38 -c 2 -a 0 -i 0 -k MAC
+ -t 0.037675619 -s 0 -d 5 -p tcp -e 1098 -c 2 -a 0 -i 5 -k MAC 
- -t 0.037675619 -s 0 -d 5 -p tcp -e 1098 -c 2 -a 0 -i 5 -k MAC
h -t 0.037675619 -s 0 -d 5 -p tcp -e 1098 -c 2 -a 0 -i 5 -k MAC
r -t 0.046460219 -s 5 -d 5 -p tcp -e 1040 -c 2 -a 0 -i 5 -k MAC
+ -t 0.046470219 -s 5 -d -1 -p ACK -e 38 -c 2 -a 0 -i 0 -k MAC 
- -t 0.046470219 -s 5 -d -1 -p ACK -e 38 -c 2 -a 0 -i 0 -k MAC
h -t 0.046470219 -s 5 -d -1 -p ACK -e 38 -c 2 -a 0 -i 0 -k MAC
r -t 0.046485219 -s 5 -d 5 -p tcp -e 1040 -c 2 -a 0 -i 5 -k AGT
+ -t 0.046485219 -s 5 -d -1 -p ack -e 40 -c 2 -a 0 -i 8 -k AGT 
- -t 0.046485219 -s 5 -d -1 -p ack -e 40 -c 2 -a 0 -i 8 -k AGT
h -t 0.046485219 -s 5 -d -1 -p ack -e 40 -c 2 -a 0 -i 8 -k AGT
+ -t 0.046485219 -s 5 -d 0 -p ack -e 40 -c 2 -a 0 -i 8 -k RTR 
- -t 0.046485219 -s 5 -d 0 -p ack -e 40 -c 2 -a 0 -i 8 -k RTR
h -t 0.046485219 -s 5 -d 0 -p ack -e 40 -c 2 -a 0 -i 8 -k RTR
r -t 0.046774819 -s 0 -d -1 -p ACK -e 38 -c 2 -a 0 -i 0 -k MAC
+ -t 0.046864819 -s 0 -d -1 -p RTS -e 44 -c 2 -a 0 -i 0 -k MAC 
- -t 0.046864819 -s 0 -d -1 -p RTS -e 44 -c 2 -a 0 -i 0 -k MAC
h -t 0.046864819 -s 0 -d -1 -p RTS -e 44 -c 2 -a 0 -i 0 -k MAC
r -t 0.047217419 -s 5 -d -1 -p RTS -e 44 -c 2 -a 0 -i 0 -k MAC
+ -t 0.047227419 -s 5 -d -1 -p CTS -e 38 -c 2 -a 0 -i 0 -k MAC 
- -t 0.047227419 -s 5 -d -1 -p CTS -e 38 -c 2 -a 0 -i 0 -k MAC
h -t 0.047227419 -s 5 -d -1 -p CTS -e 38 -c 2 -a 0 -i 0 -k MAC
r -t 0.047532019 -s 0 -d -1 -p CTS -e 38 -c 2 -a 0 -i 0 -k MAC
+ -t 0.047542019 -s 0 -d 5 -p tcp -e 1098 -c 2 -a 0 -i 6 -k MAC 
- -t 0.047542019 -s 0 -d 5 -p tcp -e 1098 -c 2 -a 0 -i 6 -k MAC
h -t 0.047542019 -s 0 -d 5 -p tcp -e 1098 -c 2 -a 0 -i 6 -k MAC
r -t 0.056326619 -s 5 -d 5 -p tcp -e 1040 -c 2 -a 0 -i 6 -k MAC
+ -t 0.056336619 -s 5 -d -1 -p ACK -e 38 -c 2 -a 0 -i 0 -k MAC 
- -t 0.056336619 -s 5 -d -1 -p ACK -e 38 -c 2 -a 0 -i 0 -k MAC
h -t 0.056336619 -s 5 -d -1 -p ACK -e 38 -c 2 -a 0 -i 0 -k MAC
r -t 0.056351619 -s 5 -d 5 -p tcp -e 1040 -c 2 -a 0 -i 6 -k AGT
+ -t 0.056351619 -s 5 -d -1 -p ack -e 40 -c 2 -a 0 -i 9 -k AGT 
- -t 0.056351619 -s 5 -d -1 -p ack -e 40 -c 2 -a 0 -i 9 -k AGT
h -t 0.056351619 -s 5 -d -1 -p ack -e 40 -c 2 -a 0 -i 9 -k AGT
+ -t 0.056351619 -s 5 -d 0 -p ack -e 40 -c 2 -a 0 -i 9 -k RTR 
- -t 0.056351619 -s 5 -d 0 -p ack -e 40 -c 2 -a 0 -i 9 -k RTR
h -t 0.056351619 -s 5 -d 0 -p ack -e 40 -c 2 -a 0 -i 9 -k RTR
r -t 0.056641219 -s 0 -d -1 -p ACK -e 38 -c 2 -a 0 -i 0 -k MAC
+ -t 0.056830619 -s 5 -d -1 -p RTS -e 44 -c 2 -a 0 -i 0 -k MAC 
- -t 0.056830619 -s 5 -d -1 -p RTS -e 44 -c 2 -a 0 -i 0 -k MAC
h -t 0.056830619 -s 5 -d -1 -p RTS -e 44 -c 2 -a 0 -i 0 -k MAC
r -t 0.057183219 -s 0 -d -1 -p RTS -e 44 -c 2 -a 0 -i 0 -k MAC
+ -t 0.057193219 -s 0 -d -1 -p CTS -e 38 -c 2 -a 0 -i 0 -k MAC 
- -t 0.057193219 -s 0 -d -1 -p CTS -e 38 -c 2 -a 0 -i 0 -k MAC
h -t 0.057193219 -s 0 -d -1 -p CTS -e 38 -c 2 -a 0 -i 0 -k MAC
r -t 0.057497819 -s 5 -d -1 -p CTS -e 38 -c 2 -a 0 -i 0 -k MAC
+ -t 0.057507819 -s 5 -d 0 -p ack -e 98 -c 2 -a 0 -i 7 -k MAC 
- -t 0.057507819 -s 5 -d 0 -p ack -e 98 -c 2 -a 0 -i 7 -k MAC
h -t 0.057507819 -s 5 -d 0 -p ack -e 98 -c 2 -a 0 -i 7 -k MAC
r -t 0.058292419 -s 0 -d 0 -p ack -e 40 -c 2 -a 0 -i 7 -k MAC
+ -t 0.058302419 -s 0 -d -1 -p ACK -e 38 -c 2 -a 0 -i 0 -k MAC 
- -t 0.058302419 -s 0 -d -1 -p ACK -e 38 -c 2 -a 0 -i 0 -k MAC
h -t 0.058302419 -s 0 -d -1 -p ACK -e 38 -c 2 -a 0 -i 0 -k MAC
r -t 0.058317419 -s 0 -d 0 -p ack -e 40 -c 2 -a 0 -i 7 -k AGT
+ -t 0.058317419 -s 0 -d -1 -p tcp -e 1040 -c 2 -a 0 -i 10 -k AGT 
- -t 0.058317419 -s 0 -d -1 -p tcp -e 1040 -c 2 -a 0 -i 10 -k AGT
h -t 0.058317419 -s 0 -d -1 -p tcp -e 1040 -c 2 -a 0 -i 10 -k AGT
+ -t 0.058317419 -s 0 -d -1 -p tcp -e 1040 -c 2 -a 0 -i 11 -k AGT 
- -t 0.058317419 -s 0 -d -1 -p tcp -e 1040 -c 2 -a 0 -i 11 -k AGT
h -t 0.058317419 -s 0 -d -1 -p tcp -e 1040 -c 2 -a 0 -i 11 -k AGT
+ -t 0.058317419 -s 0 -d 5 -p tcp -e 1040 -c 2 -a 0 -i 10 -k RTR 
- -t 0.058317419 -s 0 -d 5 -p tcp -e 1040 -c 2 -a 0 -i 10 -k RTR
h -t 0.058317419 -s 0 -d 5 -p tcp -e 1040 -c 2 -a 0 -i 10 -k RTR
+ -t 0.058317419 -s 0 -d 5 -p tcp -e 1040 -c 2 -a 0 -i 11 -k RTR 
- -t 0.058317419 -s 0 -d 5 -p tcp -e 1040 -c 2 -a 0 -i 11 -k RTR
h -t 0.058317419 -s 0 -d 5 -p tcp -e 1040 -c 2 -a 0 -i 11 -k RTR
r -t 0.058607019 -s 5 -d -1 -p ACK -e 38 -c 2 -a 0 -i 0 -k MAC
+ -t 0.058816419 -s 0 -d -1 -p RTS -e 44 -c 2 -a 0 -i 0 -k MAC 
- -t 0.058816419 -s 0 -d -1 -p RTS -e 44 -c 2 -a 0 -i 0 -k MAC
h -t 0.058816419 -s 0 -d -1 -p RTS -e 44 -c 2 -a 0 -i 0 -k MAC
r -t 0.059169019 -s 5 -d -1 -p RTS -e 44 -c 2 -a 0 -i 0 -k MAC
+ -t 0.059179019 -s 5 -d -1 -p CTS -e 38 -c 2 -a 0 -i 0 -k MAC 
- -t 0.059179019 -s 5 -d -1 -p CTS -e 38 -c 2 -a 0 -i 0 -k MAC
h -t 0.059179019 -s 5 -d -1 -p CTS -e 38 -c 2 -a 0 -i 0 -k MAC
r -t 0.059483619 -s 0 -d -1 -p CTS -e 38 -c 2 -a 0 -i 0 -k MAC
+ -t 0.059493619 -s 0 -d 5 -p tcp -e 1098 -c 2 -a 0 -i 10 -k MAC 
- -t 0.059493619 -s 0 -d 5 -p tcp -e 1098 -c 2 -a 0 -i 10 -k MAC
h -t 0.059493619 -s 0 -d 5 -p tcp -e 1098 -c 2 -a 0 -i 10 -k MAC
r -t 0.068278219 -s 5 -d 5 -p tcp -e 1040 -c 2 -a 0 -i 10 -k MAC
+ -t 0.068288219 -s 5 -d -1 -p ACK -e 38 -c 2 -a 0 -i 0 -k MAC 
- -t 0.068288219 -s 5 -d -1 -p ACK -e 38 -c 2 -a 0 -i 0 -k MAC
h -t 0.068288219 -s 5 -d -1 -p ACK -e 38 -c 2 -a 0 -i 0 -k MAC
r -t 0.068303219 -s 5 -d 5 -p tcp -e 1040 -c 2 -a 0 -i 10 -k AGT
+ -t 0.068303219 -s 5 -d -1 -p ack -e 40 -c 2 -a 0 -i 12 -k AGT 
- -t 0.068303219 -s 5 -d -1 -p ack -e 40 -c 2 -a 0 -i 12 -k AGT
h -t 0.068303219 -s 5 -d -1 -p ack -e 40 -c 2 -a 0 -i 12 -k AGT
+ -t 0.068303219 -s 5 -d 0 -p ack -e 40 -c 2 -a 0 -i 12 -k RTR 
- -t 0.068303219 -s 5 -d 0 -p ack -e 40 -c 2 -a 0 -i 12 -k RTR
h -t 0.068303219 -s 5 -d 0 -p ack -e 40 -c 2 -a 0 -i 12 -k RTR
r -t 0.068592819 -s 0 -d -1 -p ACK -e 38 -c 2 -a 0 -i 0 -k MAC
+ -t 0.068782819 -s 0 -d -1 -p RTS -e 44 -c 2 -a 0 -i 0 -k MAC 
- -t 0.068782819 -s 0 -d -1 -p RTS -e 44 -c 2 -a 0 -i 0 -k MAC
h -t 0.068782819 -s 0 -d -1 -p RTS -e 44 -c 2 -a 0 -i 0 -k MAC
r -t 0.069135419 -s 5 -d -1 -p RTS -e 44 -c 2 -a 0 -i 0 -k MAC
+ -t 0.069145419 -s 5 -d -1 -p CTS -e 38 -c 2 -a 0 -i 0 -k MAC 
- -t 0.069145419 -s 5 -d -1 -p CTS -e 38 -c 2 -a 0 -i 0 -k MAC
h -t 0.069145419 -s 5 -d -1 -p CTS -e 38 -c 2 -a 0 -i 0 -k MAC
r -t 0.069450019 -s 0 -d -1 -p CTS -e 38 -c 2 -a 0 -i 0 -k MAC
+ -t 0.069460019 -s 0 -d 5 -p tcp -e 1098 -c 2 -a 0 -i 11 -k MAC 
- -t 0.069460019 -s 0 -d 5 -p tcp -e 1098 -c 2 -a 0 -i 11 -k MAC
h -t 0.069460019 -s 0 -d 5 -p tcp -e 1098 -c 2 -a 0 -i 11 -k MAC
r -t 0.078244619 -s 5 -d 5 -p tcp -e 1040 -c 2 -a 0 -i 11 -k MAC
+ -t 0.078254619 -s 5 -d -1 -p ACK -e 38 -c 2 -a 0 -i 0 -k MAC 
- -t 0.078254619 -s 5 -d -1 -p ACK -e 38 -c 2 -a 0 -i 0 -k MAC
h -t 0.078254619 -s 5 -d -1 -p ACK -e 38 -c 2 -a 0 -i 0 -k MAC
r -t 0.078269619 -s 5 -d 5 -p tcp -e 1040 -c 2 -a 0 -i 11 -k AGT
+ -t 0.078269619 -s 5 -d -1 -p ack -e 40 -c 2 -a 0 -i 13 -k AGT 
- -t 0.078269619 -s 5 -d -1 -p ack -e 40 -c 2 -a 0 -i 13 -k AGT
h -t 0.078269619 -s 5 -d -1 -p ack -e 40 -c 2 -a 0 -i 13 -k AGT
+ -t 0.078269619 -s 5 -d 0 -p ack -e 40 -c 2 -a 0 -i 13 -k RTR 
- -t 0.078269619 -s 5 -d 0 -p ack -e 40 -c 2 -a 0 -i 13 -k RTR
h -t 0.078269619 -s 5 -d 0 -p ack -e 40 -c 2 -a 0 -i 13 -k RTR
r -t 0.078559219 -s 0 -d -1 -p ACK -e 38 -c 2 -a 0 -i 0 -k MAC
+ -t 0.078668619 -s 5 -d -1 -p RTS -e 44 -c 2 -a 0 -i 0 -k MAC 
- -t 0.078668619 -s 5 -d -1 -p RTS -e 44 -c 2 -a 0 -i 0 -k MAC
h -t 0.078668619 -s 5 -d -1 -p RTS -e 44 -c 2 -a 0 -i 0 -k MAC
r -t 0.079021219 -s 0 -d -1 -p RTS -e 44 -c 2 -a 0 -i 0 -k MAC
+ -t 0.079031219 -s 0 -d -1 -p CTS -e 38 -c 2 -a 0 -i 0 -k MAC 
- -t 0.079031219 -s 0 -d -1 -p CTS -e 38 -c 2 -a 0 -i 0 -k MAC
h -t 0.079031219 -s 0 -d -1 -p CTS -e 38 -c 2 -a 0 -i 0 -k MAC
r -t 0.079335819 -s 5 -d -1 -p CTS -e 38 -c 2 -a 0 -i 0 -k MAC
+ -t 0.079345819 -s 5 -d 0 -p ack -e 98 -c 2 -a 0 -i 8 -k MAC 
- -t 0.079345819 -s 5 -d 0 -p ack -e 98 -c 2 -a 0 -i 8 -k MAC
h -t 0.079345819 -s 5 -d 0 -p ack -e 98 -c 2 -a 0 -i 8 -k MAC
r -t 0.080130419 -s 0 -d 0 -p ack -e 40 -c 2 -a 0 -i 8 -k MAC
+ -t 0.080140419 -s 0 -d -1 -p ACK -e 38 -c 2 -a 0 -i 0 -k MAC 
- -t 0.080140419 -s 0 -d -1 -p ACK -e 38 -c 2 -a 0 -i 0 -k MAC
h -t 0.080140419 -s 0 -d -1 -p ACK -e 38 -c 2 -a 0 -i 0 -k MAC
r -t 0.080155419 -s 0 -d 0 -p ack -e 40 -c 2 -a 0 -i 8 -k AGT
+ -t 0.080155419 -s 0 -d -1 -p tcp -e 1040 -c 2 -a 0 -i 14 -k AGT 
- -t 0.080155419 -s 0 -d -1 -p tcp -e 1040 -c 2 -a 0 -i 14 -k AGT
h -t 0.080155419 -s 0 -d -1 -p tcp -e 1040 -c 2 -a 0 -i 14 -k AGT
+ -t 0.080155419 -s 0 -d -1 -p tcp -e 1040 -c 2 -a 0 -i 15 -k AGT 
- -t 0.080155419 -s 0 -d -1 -p tcp -e 1040 -c 2 -a 0 -i 15 -k AGT
h -t 0.080155419 -s 0 -d -1 -p tcp -e 1040 -c 2 -a 0 -i 15 -k AGT
+ -t 0.080155419 -s 0 -d 5 -p tcp -e 1040 -c 2 -a 0 -i 14 -k RTR 
- -t 0.080155419 -s 0 -d 5 -p tcp -e 1040 -c 2 -a 0 -i 14 -k RTR
h -t 0.080155419 -s 0 -d 5 -p tcp -e 1040 -c 2 -a 0 -i 14 -k RTR
+ -t 0.080155419 -s 0 -d 5 -p tcp -e 1040 -c 2 -a 0 -i 15 -k RTR 
- -t 0.080155419 -s 0 -d 5 -p tcp -e 1040 -c 2 -a 0 -i 15 -k RTR
h -t 0.080155419 -s 0 -d 5 -p tcp -e 1040 -c 2 -a 0 -i 15 -k RTR
r -t 0.080445019 -s 5 -d -1 -p ACK -e 38 -c 2 -a 0 -i 0 -k MAC
+ -t 0.080514419 -s 0 -d -1 -p RTS -e 44 -c 2 -a 0 -i 0 -k MAC 
- -t 0.080514419 -s 0 -d -1 -p RTS -e 44 -c 2 -a 0 -i 0 -k MAC
h -t 0.080514419 -s 0 -d -1 -p RTS -e 44 -c 2 -a 0 -i 0 -k MAC
r -t 0.080867019 -s 5 -d -1 -p RTS -e 44 -c 2 -a 0 -i 0 -k MAC
+ -t 0.080877019 -s 5 -d -1 -p CTS -e 38 -c 2 -a 0 -i 0 -k MAC 
- -t 0.080877019 -s 5 -d -1 -p CTS -e 38 -c 2 -a 0 -i 0 -k MAC
h -t 0.080877019 -s 5 -d -1 -p CTS -e 38 -c 2 -a 0 -i 0 -k MAC
r -t 0.081181619 -s 0 -d -1 -p CTS -e 38 -c 2 -a 0 -i 0 -k MAC
+ -t 0.081191619 -s 0 -d 5 -p tcp -e 1098 -c 2 -a 0 -i 14 -k MAC 
- -t 0.081191619 -s 0 -d 5 -p tcp -e 1098 -c 2 -a 0 -i 14 -k MAC
h -t 0.081191619 -s 0 -d 5 -p tcp -e 1098 -c 2 -a 0 -i 14 -k MAC
r -t 0.089976219 -s 5 -d 5 -p tcp -e 1040 -c 2 -a 0 -i 14 -k MAC
+ -t 0.089986219 -s 5 -d -1 -p ACK -e 38 -c 2 -a 0 -i 0 -k MAC 
- -t 0.089986219 -s 5 -d -1 -p ACK -e 38 -c 2 -a 0 -i 0 -k MAC
h -t 0.089986219 -s 5 -d -1 -p ACK -e 38 -c 2 -a 0 -i 0 -k MAC
r -t 0.090001219 -s 5 -d 5 -p tcp -e 1040 -c 2 -a 0 -i 14 -k AGT
+ -t 0.090001219 -s 5 -d -1 -p ack -e 40 -c 2 -a 0 -i 16 -k AGT 
- -t 0.090001219 -s 5 -d -1 -p ack -e 40 -c 2 -a 0 -i 16 -k AGT
h -t 0.090001219 -s 5 -d -1 -p ack -e 40 -c 2 -a 0 -i 16 -k AGT
+ -t 0.090001219 -s 5 -d 0 -p ack -e 40 -c 2 -a 0 -i 16 -k RTR 
- -t 0.090001219 -s 5 -d 0 -p ack -e 40 -c 2 -a 0 -i 16 -k RTR
h -t 0.090001219 -s 5 -d 0 -p ack -e 40 -c 2 -a 0 -i 16 -k RTR
r -t 0.090290819 -s 0 -d -1 -p ACK -e 38 -c 2 -a 0 -i 0 -k MAC
+ -t 0.090540819 -s 0 -d -1 -p RTS -e 44 -c 2 -a 0 -i 0 -k MAC 
- -t 0.090540819 -s 0 -d -1 -p RTS -e 44 -c 2 -a 0 -i 0 -k MAC
h -t 0.090540819 -s 0 -d -1 -p RTS -e 44 -c 2 -a 0 -i 0 -k MAC
r -t 0.090893419 -s 5 -d -1 -p RTS -e 44 -c 2 -a 0 -i 0 -k MAC
+ -t 0.090903419 -s 5 -d -1 -p CTS -e 38 -c 2 -a 0 -i 0 -k MAC 
- -t 0.090903419 -s 5 -d -1 -p CTS -e 38 -c 2 -a 0 -i 0 -k MAC
h -t 0.090903419 -s 5 -d -1 -p CTS -e 38 -c 2 -a 0 -i 0 -k MAC
r -t 0.091208019 -s 0 -d -1 -p CTS -e 38 -c 2 -a 0 -i 0 -k MAC
+ -t 0.091218019 -s 0 -d 5 -p tcp -e 1098 -c 2 -a 0 -i 15 -k MAC 
- -t 0.091218019 -s 0 -d 5 -p tcp -e 1098 -c 2 -a 0 -i 15 -k MAC
h -t 0.091218019 -s 0 -d 5 -p tcp -e 1098 -c 2 -a 0 -i 15 -k MAC
r -t 0.100002619 -s 5 -d 5 -p tcp -e 1040 -c 2 -a 0 -i 15 -k MAC
+ -t 0.100012619 -s 5 -d -1 -p ACK -e 38 -c 2 -a 0 -i 0 -k MAC 
- -t 0.100012619 -s 5 -d -1 -p ACK -e 38 -c 2 -a 0 -i 0 -k MAC
h -t 0.100012619 -s 5 -d -1 -p ACK -e 38 -c 2 -a 0 -i 0 -k MAC
r -t 0.100027619 -s 5 -d 5 -p tcp -e 1040 -c 2 -a 0 -i 15 -k AGT
+ -t 0.100027619 -s 5 -d -1 -p ack -e 40 -c 2 -a 0 -i 17 -k AGT 
- -t 0.100027619 -s 5 -d -1 -p ack -e 40 -c 2 -a 0 -i 17 -k AGT
h -t 0.100027619 -s 5 -d -1 -p ack -e 40 -c 2 -a 0 -i 17 -k AGT
+ -t 0.100027619 -s 5 -d 0 -p ack -e 40 -c 2 -a 0 -i 17 -k RTR 
- -t 0.100027619 -s 5 -d 0 -p ack -e 40 -c 2 -a 0 -i 17 -k RTR
h -t 0.100027619 -s 5 -d 0 -p ack -e 40 -c 2 -a 0 -i 17 -k RTR
r -t 0.100317219 -s 0 -d -1 -p ACK -e 38 -c 2 -a 0 -i 0 -k MAC
+ -t 0.100426619 -s 5 -d -1 -p RTS -e 44 -c 2 -a 0 -i 0 -k MAC 
- -t 0.100426619 -s 5 -d -1 -p RTS -e 44 -c 2 -a 0 -i 0 -k MAC
h -t 0.100426619 -s 5 -d -1 -p RTS -e 44 -c 2 -a 0 -i 0 -k MAC
r -t 0.100779219 -s 0 -d -1 -p RTS -e 44 -c 2 -a 0 -i 0 -k MAC
+ -t 0.100789219 -s 0 -d -1 -p CTS -e 38 -c 2 -a 0 -i 0 -k MAC 
- -t 0.100789219 -s 0 -d -1 -p CTS -e 38 -c 2 -a 0 -i 0 -k MAC
h -t 0.100789219 -s 0 -d -1 -p CTS -e 38 -c 2 -a 0 -i 0 -k MAC
r -t 0.101093819 -s 5 -d -1 -p CTS -e 38 -c 2 -a 0 -i 0 -k MAC
+ -t 0.101103819 -s 5 -d 0 -p ack -e 98 -c 2 -a 0 -i 9 -k MAC 